# Probe 0 (-420 0 0)  # Not Found
# Probe 1 (-419.124 0 0)  # Not Found
# Probe 2 (-418.248 0 0)  # Not Found
# Probe 3 (-417.372 0 0)  # Not Found
# Probe 4 (-416.496 0 0)  # Not Found
# Probe 5 (-415.62 0 0)  # Not Found
# Probe 6 (-414.745 0 0)  # Not Found
# Probe 7 (-413.869 0 0)  # Not Found
# Probe 8 (-412.993 0 0)  # Not Found
# Probe 9 (-412.117 0 0)  # Not Found
# Probe 10 (-411.241 0 0)  # Not Found
# Probe 11 (-410.365 0 0)  # Not Found
# Probe 12 (-409.489 0 0)  # Not Found
# Probe 13 (-408.613 0 0)  # Not Found
# Probe 14 (-407.737 0 0)  # Not Found
# Probe 15 (-406.861 0 0)  # Not Found
# Probe 16 (-405.985 0 0)  # Not Found
# Probe 17 (-405.109 0 0)  # Not Found
# Probe 18 (-404.234 0 0)  # Not Found
# Probe 19 (-403.358 0 0)  # Not Found
# Probe 20 (-402.482 0 0)  # Not Found
# Probe 21 (-401.606 0 0)  # Not Found
# Probe 22 (-400.73 0 0)  # Not Found
# Probe 23 (-399.854 0 0)  # Not Found
# Probe 24 (-398.978 0 0)  # Not Found
# Probe 25 (-398.102 0 0)  # Not Found
# Probe 26 (-397.226 0 0)  # Not Found
# Probe 27 (-396.35 0 0)  # Not Found
# Probe 28 (-395.474 0 0)  # Not Found
# Probe 29 (-394.599 0 0)  # Not Found
# Probe 30 (-393.723 0 0)  # Not Found
# Probe 31 (-392.847 0 0)  # Not Found
# Probe 32 (-391.971 0 0)  # Not Found
# Probe 33 (-391.095 0 0)  # Not Found
# Probe 34 (-390.219 0 0)  # Not Found
# Probe 35 (-389.343 0 0)  # Not Found
# Probe 36 (-388.467 0 0)  # Not Found
# Probe 37 (-387.591 0 0)  # Not Found
# Probe 38 (-386.715 0 0)  # Not Found
# Probe 39 (-385.839 0 0)  # Not Found
# Probe 40 (-384.964 0 0)  # Not Found
# Probe 41 (-384.088 0 0)  # Not Found
# Probe 42 (-383.212 0 0)  # Not Found
# Probe 43 (-382.336 0 0)  # Not Found
# Probe 44 (-381.46 0 0)  # Not Found
# Probe 45 (-380.584 0 0)  # Not Found
# Probe 46 (-379.708 0 0)  # Not Found
# Probe 47 (-378.832 0 0)  # Not Found
# Probe 48 (-377.956 0 0)  # Not Found
# Probe 49 (-377.08 0 0)  # Not Found
# Probe 50 (-376.204 0 0)  # Not Found
# Probe 51 (-375.328 0 0)  # Not Found
# Probe 52 (-374.453 0 0)  # Not Found
# Probe 53 (-373.577 0 0)  # Not Found
# Probe 54 (-372.701 0 0)  # Not Found
# Probe 55 (-371.825 0 0)  # Not Found
# Probe 56 (-370.949 0 0)  # Not Found
# Probe 57 (-370.073 0 0)  # Not Found
# Probe 58 (-369.197 0 0)  # Not Found
# Probe 59 (-368.321 0 0)  # Not Found
# Probe 60 (-367.445 0 0)  # Not Found
# Probe 61 (-366.569 0 0)  # Not Found
# Probe 62 (-365.693 0 0)  # Not Found
# Probe 63 (-364.818 0 0)  # Not Found
# Probe 64 (-363.942 0 0)  # Not Found
# Probe 65 (-363.066 0 0)  # Not Found
# Probe 66 (-362.19 0 0)  # Not Found
# Probe 67 (-361.314 0 0)  # Not Found
# Probe 68 (-360.438 0 0)  # Not Found
# Probe 69 (-359.562 0 0)  # Not Found
# Probe 70 (-358.686 0 0)  # Not Found
# Probe 71 (-357.81 0 0)  # Not Found
# Probe 72 (-356.934 0 0)  # Not Found
# Probe 73 (-356.058 0 0)  # Not Found
# Probe 74 (-355.182 0 0)  # Not Found
# Probe 75 (-354.307 0 0)  # Not Found
# Probe 76 (-353.431 0 0)  # Not Found
# Probe 77 (-352.555 0 0)  # Not Found
# Probe 78 (-351.679 0 0)  # Not Found
# Probe 79 (-350.803 0 0)  # Not Found
# Probe 80 (-349.927 0 0)  # Not Found
# Probe 81 (-349.051 0 0)  # Not Found
# Probe 82 (-348.175 0 0)  # Not Found
# Probe 83 (-347.299 0 0)  # Not Found
# Probe 84 (-346.423 0 0)  # Not Found
# Probe 85 (-345.547 0 0)  # Not Found
# Probe 86 (-344.672 0 0)  # Not Found
# Probe 87 (-343.796 0 0)  # Not Found
# Probe 88 (-342.92 0 0)  # Not Found
# Probe 89 (-342.044 0 0)  # Not Found
# Probe 90 (-341.168 0 0)  # Not Found
# Probe 91 (-340.292 0 0)  # Not Found
# Probe 92 (-339.416 0 0)  # Not Found
# Probe 93 (-338.54 0 0)  # Not Found
# Probe 94 (-337.664 0 0)  # Not Found
# Probe 95 (-336.788 0 0)  # Not Found
# Probe 96 (-335.912 0 0)  # Not Found
# Probe 97 (-335.036 0 0)  # Not Found
# Probe 98 (-334.161 0 0)  # Not Found
# Probe 99 (-333.285 0 0)  # Not Found
# Probe 100 (-332.409 0 0)  # Not Found
# Probe 101 (-331.533 0 0)  # Not Found
# Probe 102 (-330.657 0 0)  # Not Found
# Probe 103 (-329.781 0 0)  # Not Found
# Probe 104 (-328.905 0 0)  # Not Found
# Probe 105 (-328.029 0 0)  # Not Found
# Probe 106 (-327.153 0 0)  # Not Found
# Probe 107 (-326.277 0 0)  # Not Found
# Probe 108 (-325.401 0 0)  # Not Found
# Probe 109 (-324.526 0 0)  # Not Found
# Probe 110 (-323.65 0 0)  # Not Found
# Probe 111 (-322.774 0 0)  # Not Found
# Probe 112 (-321.898 0 0)  # Not Found
# Probe 113 (-321.022 0 0)  # Not Found
# Probe 114 (-320.146 0 0)  # Not Found
# Probe 115 (-319.27 0 0)  # Not Found
# Probe 116 (-318.394 0 0)  # Not Found
# Probe 117 (-317.518 0 0)  # Not Found
# Probe 118 (-316.642 0 0)  # Not Found
# Probe 119 (-315.766 0 0)  # Not Found
# Probe 120 (-314.891 0 0)  # Not Found
# Probe 121 (-314.015 0 0)  # Not Found
# Probe 122 (-313.139 0 0)  # Not Found
# Probe 123 (-312.263 0 0)  # Not Found
# Probe 124 (-311.387 0 0)  # Not Found
# Probe 125 (-310.511 0 0)  # Not Found
# Probe 126 (-309.635 0 0)  # Not Found
# Probe 127 (-308.759 0 0)  # Not Found
# Probe 128 (-307.883 0 0)  # Not Found
# Probe 129 (-307.007 0 0)  # Not Found
# Probe 130 (-306.131 0 0)  # Not Found
# Probe 131 (-305.255 0 0)  # Not Found
# Probe 132 (-304.38 0 0)  # Not Found
# Probe 133 (-303.504 0 0)  # Not Found
# Probe 134 (-302.628 0 0)  # Not Found
# Probe 135 (-301.752 0 0)  # Not Found
# Probe 136 (-300.876 0 0)  # Not Found
# Probe 137 (-300 0 0)  # Not Found
# Probe 138 (-299.124 0 0)  # Not Found
# Probe 139 (-298.248 0 0)  # Not Found
# Probe 140 (-297.372 0 0)  # Not Found
# Probe 141 (-296.496 0 0)  # Not Found
# Probe 142 (-295.62 0 0)  # Not Found
# Probe 143 (-294.745 0 0)  # Not Found
# Probe 144 (-293.869 0 0)  # Not Found
# Probe 145 (-292.993 0 0)  # Not Found
# Probe 146 (-292.117 0 0)  # Not Found
# Probe 147 (-291.241 0 0)  # Not Found
# Probe 148 (-290.365 0 0)  # Not Found
# Probe 149 (-289.489 0 0)  # Not Found
# Probe 150 (-288.613 0 0)  # Not Found
# Probe 151 (-287.737 0 0)  # Not Found
# Probe 152 (-286.861 0 0)  # Not Found
# Probe 153 (-285.985 0 0)  # Not Found
# Probe 154 (-285.109 0 0)  # Not Found
# Probe 155 (-284.234 0 0)  # Not Found
# Probe 156 (-283.358 0 0)  # Not Found
# Probe 157 (-282.482 0 0)  # Not Found
# Probe 158 (-281.606 0 0)  # Not Found
# Probe 159 (-280.73 0 0)  # Not Found
# Probe 160 (-279.854 0 0)  # Not Found
# Probe 161 (-278.978 0 0)  # Not Found
# Probe 162 (-278.102 0 0)  # Not Found
# Probe 163 (-277.226 0 0)  # Not Found
# Probe 164 (-276.35 0 0)  # Not Found
# Probe 165 (-275.474 0 0)  # Not Found
# Probe 166 (-274.599 0 0)  # Not Found
# Probe 167 (-273.723 0 0)  # Not Found
# Probe 168 (-272.847 0 0)  # Not Found
# Probe 169 (-271.971 0 0)  # Not Found
# Probe 170 (-271.095 0 0)  # Not Found
# Probe 171 (-270.219 0 0)  # Not Found
# Probe 172 (-269.343 0 0)  # Not Found
# Probe 173 (-268.467 0 0)  # Not Found
# Probe 174 (-267.591 0 0)  # Not Found
# Probe 175 (-266.715 0 0)  # Not Found
# Probe 176 (-265.839 0 0)  # Not Found
# Probe 177 (-264.964 0 0)  # Not Found
# Probe 178 (-264.088 0 0)  # Not Found
# Probe 179 (-263.212 0 0)  # Not Found
# Probe 180 (-262.336 0 0)  # Not Found
# Probe 181 (-261.46 0 0)  # Not Found
# Probe 182 (-260.584 0 0)  # Not Found
# Probe 183 (-259.708 0 0)  # Not Found
# Probe 184 (-258.832 0 0)  # Not Found
# Probe 185 (-257.956 0 0)  # Not Found
# Probe 186 (-257.08 0 0)  # Not Found
# Probe 187 (-256.204 0 0)  # Not Found
# Probe 188 (-255.328 0 0)  # Not Found
# Probe 189 (-254.453 0 0)  # Not Found
# Probe 190 (-253.577 0 0)  # Not Found
# Probe 191 (-252.701 0 0)  # Not Found
# Probe 192 (-251.825 0 0)  # Not Found
# Probe 193 (-250.949 0 0)  # Not Found
# Probe 194 (-250.073 0 0)  # Not Found
# Probe 195 (-249.197 0 0)  # Not Found
# Probe 196 (-248.321 0 0)  # Not Found
# Probe 197 (-247.445 0 0)  # Not Found
# Probe 198 (-246.569 0 0)  # Not Found
# Probe 199 (-245.693 0 0)  # Not Found
# Probe 200 (-244.818 0 0)  # Not Found
# Probe 201 (-243.942 0 0)  # Not Found
# Probe 202 (-243.066 0 0)  # Not Found
# Probe 203 (-242.19 0 0)  # Not Found
# Probe 204 (-241.314 0 0)  # Not Found
# Probe 205 (-240.438 0 0)  # Not Found
# Probe 206 (-239.562 0 0)  # Not Found
# Probe 207 (-238.686 0 0)  # Not Found
# Probe 208 (-237.81 0 0)  # Not Found
# Probe 209 (-236.934 0 0)  # Not Found
# Probe 210 (-236.058 0 0)  # Not Found
# Probe 211 (-235.182 0 0)  # Not Found
# Probe 212 (-234.307 0 0)  # Not Found
# Probe 213 (-233.431 0 0)  # Not Found
# Probe 214 (-232.555 0 0)  # Not Found
# Probe 215 (-231.679 0 0)  # Not Found
# Probe 216 (-230.803 0 0)  # Not Found
# Probe 217 (-229.927 0 0)  # Not Found
# Probe 218 (-229.051 0 0)  # Not Found
# Probe 219 (-228.175 0 0)  # Not Found
# Probe 220 (-227.299 0 0)  # Not Found
# Probe 221 (-226.423 0 0)  # Not Found
# Probe 222 (-225.547 0 0)  # Not Found
# Probe 223 (-224.672 0 0)  # Not Found
# Probe 224 (-223.796 0 0)  # Not Found
# Probe 225 (-222.92 0 0)  # Not Found
# Probe 226 (-222.044 0 0)  # Not Found
# Probe 227 (-221.168 0 0)  # Not Found
# Probe 228 (-220.292 0 0)  # Not Found
# Probe 229 (-219.416 0 0)  # Not Found
# Probe 230 (-218.54 0 0)  # Not Found
# Probe 231 (-217.664 0 0)  # Not Found
# Probe 232 (-216.788 0 0)  # Not Found
# Probe 233 (-215.912 0 0)  # Not Found
# Probe 234 (-215.036 0 0)  # Not Found
# Probe 235 (-214.161 0 0)  # Not Found
# Probe 236 (-213.285 0 0)  # Not Found
# Probe 237 (-212.409 0 0)  # Not Found
# Probe 238 (-211.533 0 0)  # Not Found
# Probe 239 (-210.657 0 0)  # Not Found
# Probe 240 (-209.781 0 0)
# Probe 241 (-208.905 0 0)
# Probe 242 (-208.029 0 0)
# Probe 243 (-207.153 0 0)
# Probe 244 (-206.277 0 0)
# Probe 245 (-205.401 0 0)
# Probe 246 (-204.526 0 0)
# Probe 247 (-203.65 0 0)
# Probe 248 (-202.774 0 0)
# Probe 249 (-201.898 0 0)
# Probe 250 (-201.022 0 0)
# Probe 251 (-200.146 0 0)
# Probe 252 (-199.27 0 0)
# Probe 253 (-198.394 0 0)
# Probe 254 (-197.518 0 0)
# Probe 255 (-196.642 0 0)
# Probe 256 (-195.766 0 0)
# Probe 257 (-194.891 0 0)
# Probe 258 (-194.015 0 0)
# Probe 259 (-193.139 0 0)
# Probe 260 (-192.263 0 0)
# Probe 261 (-191.387 0 0)
# Probe 262 (-190.511 0 0)
# Probe 263 (-189.635 0 0)
# Probe 264 (-188.759 0 0)
# Probe 265 (-187.883 0 0)
# Probe 266 (-187.007 0 0)
# Probe 267 (-186.131 0 0)
# Probe 268 (-185.255 0 0)
# Probe 269 (-184.38 0 0)
# Probe 270 (-183.504 0 0)
# Probe 271 (-182.628 0 0)
# Probe 272 (-181.752 0 0)
# Probe 273 (-180.876 0 0)
# Probe 274 (-180 0 0)
# Probe 275 (-179.124 0 0)
# Probe 276 (-178.248 0 0)
# Probe 277 (-177.372 0 0)
# Probe 278 (-176.496 0 0)
# Probe 279 (-175.62 0 0)
# Probe 280 (-174.745 0 0)
# Probe 281 (-173.869 0 0)
# Probe 282 (-172.993 0 0)
# Probe 283 (-172.117 0 0)
# Probe 284 (-171.241 0 0)
# Probe 285 (-170.365 0 0)
# Probe 286 (-169.489 0 0)
# Probe 287 (-168.613 0 0)
# Probe 288 (-167.737 0 0)
# Probe 289 (-166.861 0 0)
# Probe 290 (-165.985 0 0)
# Probe 291 (-165.109 0 0)
# Probe 292 (-164.234 0 0)
# Probe 293 (-163.358 0 0)
# Probe 294 (-162.482 0 0)
# Probe 295 (-161.606 0 0)
# Probe 296 (-160.73 0 0)
# Probe 297 (-159.854 0 0)
# Probe 298 (-158.978 0 0)
# Probe 299 (-158.102 0 0)
# Probe 300 (-157.226 0 0)
# Probe 301 (-156.35 0 0)
# Probe 302 (-155.474 0 0)
# Probe 303 (-154.599 0 0)
# Probe 304 (-153.723 0 0)
# Probe 305 (-152.847 0 0)
# Probe 306 (-151.971 0 0)
# Probe 307 (-151.095 0 0)
# Probe 308 (-150.219 0 0)
# Probe 309 (-149.343 0 0)
# Probe 310 (-148.467 0 0)
# Probe 311 (-147.591 0 0)
# Probe 312 (-146.715 0 0)
# Probe 313 (-145.839 0 0)
# Probe 314 (-144.964 0 0)
# Probe 315 (-144.088 0 0)
# Probe 316 (-143.212 0 0)
# Probe 317 (-142.336 0 0)
# Probe 318 (-141.46 0 0)
# Probe 319 (-140.584 0 0)
# Probe 320 (-139.708 0 0)
# Probe 321 (-138.832 0 0)
# Probe 322 (-137.956 0 0)
# Probe 323 (-137.08 0 0)
# Probe 324 (-136.204 0 0)
# Probe 325 (-135.328 0 0)
# Probe 326 (-134.453 0 0)
# Probe 327 (-133.577 0 0)
# Probe 328 (-132.701 0 0)
# Probe 329 (-131.825 0 0)
# Probe 330 (-130.949 0 0)
# Probe 331 (-130.073 0 0)
# Probe 332 (-129.197 0 0)
# Probe 333 (-128.321 0 0)
# Probe 334 (-127.445 0 0)
# Probe 335 (-126.569 0 0)
# Probe 336 (-125.693 0 0)
# Probe 337 (-124.818 0 0)
# Probe 338 (-123.942 0 0)
# Probe 339 (-123.066 0 0)
# Probe 340 (-122.19 0 0)
# Probe 341 (-121.314 0 0)
# Probe 342 (-120.438 0 0)
# Probe 343 (-119.562 0 0)
# Probe 344 (-118.686 0 0)
# Probe 345 (-117.81 0 0)
# Probe 346 (-116.934 0 0)
# Probe 347 (-116.058 0 0)
# Probe 348 (-115.182 0 0)
# Probe 349 (-114.307 0 0)
# Probe 350 (-113.431 0 0)
# Probe 351 (-112.555 0 0)
# Probe 352 (-111.679 0 0)
# Probe 353 (-110.803 0 0)
# Probe 354 (-109.927 0 0)
# Probe 355 (-109.051 0 0)
# Probe 356 (-108.175 0 0)
# Probe 357 (-107.299 0 0)
# Probe 358 (-106.423 0 0)
# Probe 359 (-105.547 0 0)
# Probe 360 (-104.672 0 0)
# Probe 361 (-103.796 0 0)
# Probe 362 (-102.92 0 0)
# Probe 363 (-102.044 0 0)
# Probe 364 (-101.168 0 0)
# Probe 365 (-100.292 0 0)
# Probe 366 (-99.416 0 0)
# Probe 367 (-98.54 0 0)
# Probe 368 (-97.664 0 0)
# Probe 369 (-96.788 0 0)
# Probe 370 (-95.912 0 0)
# Probe 371 (-95.036 0 0)
# Probe 372 (-94.161 0 0)
# Probe 373 (-93.285 0 0)
# Probe 374 (-92.409 0 0)
# Probe 375 (-91.533 0 0)
# Probe 376 (-90.657 0 0)
# Probe 377 (-89.781 0 0)
# Probe 378 (-88.905 0 0)
# Probe 379 (-88.029 0 0)
# Probe 380 (-87.153 0 0)
# Probe 381 (-86.277 0 0)
# Probe 382 (-85.401 0 0)
# Probe 383 (-84.526 0 0)
# Probe 384 (-83.65 0 0)
# Probe 385 (-82.774 0 0)
# Probe 386 (-81.898 0 0)
# Probe 387 (-81.022 0 0)
# Probe 388 (-80.146 0 0)
# Probe 389 (-79.27 0 0)
# Probe 390 (-78.394 0 0)
# Probe 391 (-77.518 0 0)
# Probe 392 (-76.642 0 0)
# Probe 393 (-75.766 0 0)
# Probe 394 (-74.891 0 0)
# Probe 395 (-74.015 0 0)
# Probe 396 (-73.139 0 0)
# Probe 397 (-72.263 0 0)
# Probe 398 (-71.387 0 0)
# Probe 399 (-70.511 0 0)
# Probe 400 (-69.635 0 0)
# Probe 401 (-68.759 0 0)
# Probe 402 (-67.883 0 0)
# Probe 403 (-67.007 0 0)
# Probe 404 (-66.131 0 0)
# Probe 405 (-65.255 0 0)
# Probe 406 (-64.38 0 0)
# Probe 407 (-63.504 0 0)
# Probe 408 (-62.628 0 0)
# Probe 409 (-61.752 0 0)
# Probe 410 (-60.876 0 0)
# Probe 411 (-60 0 0)
# Probe 412 (-59.124 0 0)
# Probe 413 (-58.248 0 0)
# Probe 414 (-57.372 0 0)
# Probe 415 (-56.496 0 0)
# Probe 416 (-55.62 0 0)
# Probe 417 (-54.745 0 0)
# Probe 418 (-53.869 0 0)
# Probe 419 (-52.993 0 0)
# Probe 420 (-52.117 0 0)
# Probe 421 (-51.241 0 0)
# Probe 422 (-50.365 0 0)
# Probe 423 (-49.489 0 0)
# Probe 424 (-48.613 0 0)
# Probe 425 (-47.737 0 0)
# Probe 426 (-46.861 0 0)
# Probe 427 (-45.985 0 0)
# Probe 428 (-45.109 0 0)
# Probe 429 (-44.234 0 0)
# Probe 430 (-43.358 0 0)
# Probe 431 (-42.482 0 0)
# Probe 432 (-41.606 0 0)
# Probe 433 (-40.73 0 0)
# Probe 434 (-39.854 0 0)
# Probe 435 (-38.978 0 0)
# Probe 436 (-38.102 0 0)
# Probe 437 (-37.226 0 0)
# Probe 438 (-36.35 0 0)
# Probe 439 (-35.474 0 0)
# Probe 440 (-34.599 0 0)
# Probe 441 (-33.723 0 0)
# Probe 442 (-32.847 0 0)
# Probe 443 (-31.971 0 0)
# Probe 444 (-31.095 0 0)
# Probe 445 (-30.219 0 0)
# Probe 446 (-29.343 0 0)
# Probe 447 (-28.467 0 0)
# Probe 448 (-27.591 0 0)
# Probe 449 (-26.715 0 0)
# Probe 450 (-25.839 0 0)
# Probe 451 (-24.964 0 0)
# Probe 452 (-24.088 0 0)
# Probe 453 (-23.212 0 0)
# Probe 454 (-22.336 0 0)
# Probe 455 (-21.46 0 0)
# Probe 456 (-20.584 0 0)
# Probe 457 (-19.708 0 0)
# Probe 458 (-18.832 0 0)
# Probe 459 (-17.956 0 0)
# Probe 460 (-17.08 0 0)
# Probe 461 (-16.204 0 0)
# Probe 462 (-15.328 0 0)
# Probe 463 (-14.453 0 0)
# Probe 464 (-13.577 0 0)
# Probe 465 (-12.701 0 0)
# Probe 466 (-11.825 0 0)
# Probe 467 (-10.949 0 0)
# Probe 468 (-10.073 0 0)
# Probe 469 (-9.197 0 0)
# Probe 470 (-8.321 0 0)
# Probe 471 (-7.445 0 0)
# Probe 472 (-6.569 0 0)
# Probe 473 (-5.693 0 0)
# Probe 474 (-4.818 0 0)
# Probe 475 (-3.942 0 0)
# Probe 476 (-3.066 0 0)
# Probe 477 (-2.19 0 0)
# Probe 478 (-1.314 0 0)
# Probe 479 (-0.438 0 0)
# Probe 480 (0.438 0 0)
# Probe 481 (1.314 0 0)
# Probe 482 (2.19 0 0)
# Probe 483 (3.066 0 0)
# Probe 484 (3.942 0 0)
# Probe 485 (4.818 0 0)
# Probe 486 (5.693 0 0)
# Probe 487 (6.569 0 0)
# Probe 488 (7.445 0 0)
# Probe 489 (8.321 0 0)
# Probe 490 (9.197 0 0)
# Probe 491 (10.073 0 0)
# Probe 492 (10.949 0 0)
# Probe 493 (11.825 0 0)
# Probe 494 (12.701 0 0)
# Probe 495 (13.577 0 0)
# Probe 496 (14.453 0 0)
# Probe 497 (15.328 0 0)
# Probe 498 (16.204 0 0)
# Probe 499 (17.08 0 0)
# Probe 500 (17.956 0 0)
# Probe 501 (18.832 0 0)
# Probe 502 (19.708 0 0)
# Probe 503 (20.584 0 0)
# Probe 504 (21.46 0 0)
# Probe 505 (22.336 0 0)
# Probe 506 (23.212 0 0)
# Probe 507 (24.088 0 0)
# Probe 508 (24.964 0 0)
# Probe 509 (25.839 0 0)
# Probe 510 (26.715 0 0)
# Probe 511 (27.591 0 0)
# Probe 512 (28.467 0 0)
# Probe 513 (29.343 0 0)
# Probe 514 (30.219 0 0)
# Probe 515 (31.095 0 0)
# Probe 516 (31.971 0 0)
# Probe 517 (32.847 0 0)
# Probe 518 (33.723 0 0)
# Probe 519 (34.599 0 0)
# Probe 520 (35.474 0 0)
# Probe 521 (36.35 0 0)
# Probe 522 (37.226 0 0)
# Probe 523 (38.102 0 0)
# Probe 524 (38.978 0 0)
# Probe 525 (39.854 0 0)
# Probe 526 (40.73 0 0)
# Probe 527 (41.606 0 0)
# Probe 528 (42.482 0 0)
# Probe 529 (43.358 0 0)
# Probe 530 (44.234 0 0)
# Probe 531 (45.109 0 0)
# Probe 532 (45.985 0 0)
# Probe 533 (46.861 0 0)
# Probe 534 (47.737 0 0)
# Probe 535 (48.613 0 0)
# Probe 536 (49.489 0 0)
# Probe 537 (50.365 0 0)
# Probe 538 (51.241 0 0)
# Probe 539 (52.117 0 0)
# Probe 540 (52.993 0 0)
# Probe 541 (53.869 0 0)
# Probe 542 (54.745 0 0)
# Probe 543 (55.62 0 0)
# Probe 544 (56.496 0 0)
# Probe 545 (57.372 0 0)
# Probe 546 (58.248 0 0)
# Probe 547 (59.124 0 0)
# Probe 548 (60 0 0)
# Probe 549 (60.876 0 0)
# Probe 550 (61.752 0 0)
# Probe 551 (62.628 0 0)
# Probe 552 (63.504 0 0)
# Probe 553 (64.38 0 0)
# Probe 554 (65.255 0 0)
# Probe 555 (66.131 0 0)
# Probe 556 (67.007 0 0)
# Probe 557 (67.883 0 0)
# Probe 558 (68.759 0 0)
# Probe 559 (69.635 0 0)
# Probe 560 (70.511 0 0)
# Probe 561 (71.387 0 0)
# Probe 562 (72.263 0 0)
# Probe 563 (73.139 0 0)
# Probe 564 (74.015 0 0)
# Probe 565 (74.891 0 0)
# Probe 566 (75.766 0 0)
# Probe 567 (76.642 0 0)
# Probe 568 (77.518 0 0)
# Probe 569 (78.394 0 0)
# Probe 570 (79.27 0 0)
# Probe 571 (80.146 0 0)
# Probe 572 (81.022 0 0)
# Probe 573 (81.898 0 0)
# Probe 574 (82.774 0 0)
# Probe 575 (83.65 0 0)
# Probe 576 (84.526 0 0)
# Probe 577 (85.401 0 0)
# Probe 578 (86.277 0 0)
# Probe 579 (87.153 0 0)
# Probe 580 (88.029 0 0)
# Probe 581 (88.905 0 0)
# Probe 582 (89.781 0 0)
# Probe 583 (90.657 0 0)
# Probe 584 (91.533 0 0)
# Probe 585 (92.409 0 0)
# Probe 586 (93.285 0 0)
# Probe 587 (94.161 0 0)
# Probe 588 (95.036 0 0)
# Probe 589 (95.912 0 0)
# Probe 590 (96.788 0 0)
# Probe 591 (97.664 0 0)
# Probe 592 (98.54 0 0)
# Probe 593 (99.416 0 0)
# Probe 594 (100.292 0 0)
# Probe 595 (101.168 0 0)
# Probe 596 (102.044 0 0)
# Probe 597 (102.92 0 0)
# Probe 598 (103.796 0 0)
# Probe 599 (104.672 0 0)
# Probe 600 (105.547 0 0)
# Probe 601 (106.423 0 0)
# Probe 602 (107.299 0 0)
# Probe 603 (108.175 0 0)
# Probe 604 (109.051 0 0)
# Probe 605 (109.927 0 0)
# Probe 606 (110.803 0 0)
# Probe 607 (111.679 0 0)
# Probe 608 (112.555 0 0)
# Probe 609 (113.431 0 0)
# Probe 610 (114.307 0 0)
# Probe 611 (115.182 0 0)
# Probe 612 (116.058 0 0)
# Probe 613 (116.934 0 0)
# Probe 614 (117.81 0 0)
# Probe 615 (118.686 0 0)
# Probe 616 (119.562 0 0)
# Probe 617 (120.438 0 0)
# Probe 618 (121.314 0 0)
# Probe 619 (122.19 0 0)
# Probe 620 (123.066 0 0)
# Probe 621 (123.942 0 0)
# Probe 622 (124.818 0 0)
# Probe 623 (125.693 0 0)
# Probe 624 (126.569 0 0)
# Probe 625 (127.445 0 0)
# Probe 626 (128.321 0 0)
# Probe 627 (129.197 0 0)
# Probe 628 (130.073 0 0)
# Probe 629 (130.949 0 0)
# Probe 630 (131.825 0 0)
# Probe 631 (132.701 0 0)
# Probe 632 (133.577 0 0)
# Probe 633 (134.453 0 0)
# Probe 634 (135.328 0 0)
# Probe 635 (136.204 0 0)
# Probe 636 (137.08 0 0)
# Probe 637 (137.956 0 0)
# Probe 638 (138.832 0 0)
# Probe 639 (139.708 0 0)
# Probe 640 (140.584 0 0)
# Probe 641 (141.46 0 0)
# Probe 642 (142.336 0 0)
# Probe 643 (143.212 0 0)
# Probe 644 (144.088 0 0)
# Probe 645 (144.964 0 0)
# Probe 646 (145.839 0 0)
# Probe 647 (146.715 0 0)
# Probe 648 (147.591 0 0)
# Probe 649 (148.467 0 0)
# Probe 650 (149.343 0 0)
# Probe 651 (150.219 0 0)
# Probe 652 (151.095 0 0)
# Probe 653 (151.971 0 0)
# Probe 654 (152.847 0 0)
# Probe 655 (153.723 0 0)
# Probe 656 (154.599 0 0)
# Probe 657 (155.474 0 0)
# Probe 658 (156.35 0 0)
# Probe 659 (157.226 0 0)
# Probe 660 (158.102 0 0)
# Probe 661 (158.978 0 0)
# Probe 662 (159.854 0 0)
# Probe 663 (160.73 0 0)
# Probe 664 (161.606 0 0)
# Probe 665 (162.482 0 0)
# Probe 666 (163.358 0 0)
# Probe 667 (164.234 0 0)
# Probe 668 (165.109 0 0)
# Probe 669 (165.985 0 0)
# Probe 670 (166.861 0 0)
# Probe 671 (167.737 0 0)
# Probe 672 (168.613 0 0)
# Probe 673 (169.489 0 0)
# Probe 674 (170.365 0 0)
# Probe 675 (171.241 0 0)
# Probe 676 (172.117 0 0)
# Probe 677 (172.993 0 0)
# Probe 678 (173.869 0 0)
# Probe 679 (174.745 0 0)
# Probe 680 (175.62 0 0)
# Probe 681 (176.496 0 0)
# Probe 682 (177.372 0 0)
# Probe 683 (178.248 0 0)
# Probe 684 (179.124 0 0)
# Probe 685 (180 0 0)
# Probe 686 (180.876 0 0)
# Probe 687 (181.752 0 0)
# Probe 688 (182.628 0 0)
# Probe 689 (183.504 0 0)
# Probe 690 (184.38 0 0)
# Probe 691 (185.255 0 0)
# Probe 692 (186.131 0 0)
# Probe 693 (187.007 0 0)
# Probe 694 (187.883 0 0)
# Probe 695 (188.759 0 0)
# Probe 696 (189.635 0 0)
# Probe 697 (190.511 0 0)
# Probe 698 (191.387 0 0)
# Probe 699 (192.263 0 0)
# Probe 700 (193.139 0 0)
# Probe 701 (194.015 0 0)
# Probe 702 (194.891 0 0)
# Probe 703 (195.766 0 0)
# Probe 704 (196.642 0 0)
# Probe 705 (197.518 0 0)
# Probe 706 (198.394 0 0)
# Probe 707 (199.27 0 0)
# Probe 708 (200.146 0 0)
# Probe 709 (201.022 0 0)
# Probe 710 (201.898 0 0)
# Probe 711 (202.774 0 0)
# Probe 712 (203.65 0 0)
# Probe 713 (204.526 0 0)
# Probe 714 (205.401 0 0)
# Probe 715 (206.277 0 0)
# Probe 716 (207.153 0 0)
# Probe 717 (208.029 0 0)
# Probe 718 (208.905 0 0)
# Probe 719 (209.781 0 0)
# Probe 720 (210.657 0 0)  # Not Found
# Probe 721 (211.533 0 0)  # Not Found
# Probe 722 (212.409 0 0)  # Not Found
# Probe 723 (213.285 0 0)  # Not Found
# Probe 724 (214.161 0 0)  # Not Found
# Probe 725 (215.036 0 0)  # Not Found
# Probe 726 (215.912 0 0)  # Not Found
# Probe 727 (216.788 0 0)  # Not Found
# Probe 728 (217.664 0 0)  # Not Found
# Probe 729 (218.54 0 0)  # Not Found
# Probe 730 (219.416 0 0)  # Not Found
# Probe 731 (220.292 0 0)  # Not Found
# Probe 732 (221.168 0 0)  # Not Found
# Probe 733 (222.044 0 0)  # Not Found
# Probe 734 (222.92 0 0)  # Not Found
# Probe 735 (223.796 0 0)  # Not Found
# Probe 736 (224.672 0 0)  # Not Found
# Probe 737 (225.547 0 0)  # Not Found
# Probe 738 (226.423 0 0)  # Not Found
# Probe 739 (227.299 0 0)  # Not Found
# Probe 740 (228.175 0 0)  # Not Found
# Probe 741 (229.051 0 0)  # Not Found
# Probe 742 (229.927 0 0)  # Not Found
# Probe 743 (230.803 0 0)  # Not Found
# Probe 744 (231.679 0 0)  # Not Found
# Probe 745 (232.555 0 0)  # Not Found
# Probe 746 (233.431 0 0)  # Not Found
# Probe 747 (234.307 0 0)  # Not Found
# Probe 748 (235.182 0 0)  # Not Found
# Probe 749 (236.058 0 0)  # Not Found
# Probe 750 (236.934 0 0)  # Not Found
# Probe 751 (237.81 0 0)  # Not Found
# Probe 752 (238.686 0 0)  # Not Found
# Probe 753 (239.562 0 0)  # Not Found
# Probe 754 (240.438 0 0)  # Not Found
# Probe 755 (241.314 0 0)  # Not Found
# Probe 756 (242.19 0 0)  # Not Found
# Probe 757 (243.066 0 0)  # Not Found
# Probe 758 (243.942 0 0)  # Not Found
# Probe 759 (244.818 0 0)  # Not Found
# Probe 760 (245.693 0 0)  # Not Found
# Probe 761 (246.569 0 0)  # Not Found
# Probe 762 (247.445 0 0)  # Not Found
# Probe 763 (248.321 0 0)  # Not Found
# Probe 764 (249.197 0 0)  # Not Found
# Probe 765 (250.073 0 0)  # Not Found
# Probe 766 (250.949 0 0)  # Not Found
# Probe 767 (251.825 0 0)  # Not Found
# Probe 768 (252.701 0 0)  # Not Found
# Probe 769 (253.577 0 0)  # Not Found
# Probe 770 (254.453 0 0)  # Not Found
# Probe 771 (255.328 0 0)  # Not Found
# Probe 772 (256.204 0 0)  # Not Found
# Probe 773 (257.08 0 0)  # Not Found
# Probe 774 (257.956 0 0)  # Not Found
# Probe 775 (258.832 0 0)  # Not Found
# Probe 776 (259.708 0 0)  # Not Found
# Probe 777 (260.584 0 0)  # Not Found
# Probe 778 (261.46 0 0)  # Not Found
# Probe 779 (262.336 0 0)  # Not Found
# Probe 780 (263.212 0 0)  # Not Found
# Probe 781 (264.088 0 0)  # Not Found
# Probe 782 (264.964 0 0)  # Not Found
# Probe 783 (265.839 0 0)  # Not Found
# Probe 784 (266.715 0 0)  # Not Found
# Probe 785 (267.591 0 0)  # Not Found
# Probe 786 (268.467 0 0)  # Not Found
# Probe 787 (269.343 0 0)  # Not Found
# Probe 788 (270.219 0 0)  # Not Found
# Probe 789 (271.095 0 0)  # Not Found
# Probe 790 (271.971 0 0)  # Not Found
# Probe 791 (272.847 0 0)  # Not Found
# Probe 792 (273.723 0 0)  # Not Found
# Probe 793 (274.599 0 0)  # Not Found
# Probe 794 (275.474 0 0)  # Not Found
# Probe 795 (276.35 0 0)  # Not Found
# Probe 796 (277.226 0 0)  # Not Found
# Probe 797 (278.102 0 0)  # Not Found
# Probe 798 (278.978 0 0)  # Not Found
# Probe 799 (279.854 0 0)  # Not Found
# Probe 800 (280.73 0 0)  # Not Found
# Probe 801 (281.606 0 0)  # Not Found
# Probe 802 (282.482 0 0)  # Not Found
# Probe 803 (283.358 0 0)  # Not Found
# Probe 804 (284.234 0 0)  # Not Found
# Probe 805 (285.109 0 0)  # Not Found
# Probe 806 (285.985 0 0)  # Not Found
# Probe 807 (286.861 0 0)  # Not Found
# Probe 808 (287.737 0 0)  # Not Found
# Probe 809 (288.613 0 0)  # Not Found
# Probe 810 (289.489 0 0)  # Not Found
# Probe 811 (290.365 0 0)  # Not Found
# Probe 812 (291.241 0 0)  # Not Found
# Probe 813 (292.117 0 0)  # Not Found
# Probe 814 (292.993 0 0)  # Not Found
# Probe 815 (293.869 0 0)  # Not Found
# Probe 816 (294.745 0 0)  # Not Found
# Probe 817 (295.62 0 0)  # Not Found
# Probe 818 (296.496 0 0)  # Not Found
# Probe 819 (297.372 0 0)  # Not Found
# Probe 820 (298.248 0 0)  # Not Found
# Probe 821 (299.124 0 0)  # Not Found
# Probe 822 (300 0 0)  # Not Found
# Probe 823 (300.876 0 0)  # Not Found
# Probe 824 (301.752 0 0)  # Not Found
# Probe 825 (302.628 0 0)  # Not Found
# Probe 826 (303.504 0 0)  # Not Found
# Probe 827 (304.38 0 0)  # Not Found
# Probe 828 (305.255 0 0)  # Not Found
# Probe 829 (306.131 0 0)  # Not Found
# Probe 830 (307.007 0 0)  # Not Found
# Probe 831 (307.883 0 0)  # Not Found
# Probe 832 (308.759 0 0)  # Not Found
# Probe 833 (309.635 0 0)  # Not Found
# Probe 834 (310.511 0 0)  # Not Found
# Probe 835 (311.387 0 0)  # Not Found
# Probe 836 (312.263 0 0)  # Not Found
# Probe 837 (313.139 0 0)  # Not Found
# Probe 838 (314.015 0 0)  # Not Found
# Probe 839 (314.891 0 0)  # Not Found
# Probe 840 (315.766 0 0)  # Not Found
# Probe 841 (316.642 0 0)  # Not Found
# Probe 842 (317.518 0 0)  # Not Found
# Probe 843 (318.394 0 0)  # Not Found
# Probe 844 (319.27 0 0)  # Not Found
# Probe 845 (320.146 0 0)  # Not Found
# Probe 846 (321.022 0 0)  # Not Found
# Probe 847 (321.898 0 0)  # Not Found
# Probe 848 (322.774 0 0)  # Not Found
# Probe 849 (323.65 0 0)  # Not Found
# Probe 850 (324.526 0 0)  # Not Found
# Probe 851 (325.401 0 0)  # Not Found
# Probe 852 (326.277 0 0)  # Not Found
# Probe 853 (327.153 0 0)  # Not Found
# Probe 854 (328.029 0 0)  # Not Found
# Probe 855 (328.905 0 0)  # Not Found
# Probe 856 (329.781 0 0)  # Not Found
# Probe 857 (330.657 0 0)  # Not Found
# Probe 858 (331.533 0 0)  # Not Found
# Probe 859 (332.409 0 0)  # Not Found
# Probe 860 (333.285 0 0)  # Not Found
# Probe 861 (334.161 0 0)  # Not Found
# Probe 862 (335.036 0 0)  # Not Found
# Probe 863 (335.912 0 0)  # Not Found
# Probe 864 (336.788 0 0)  # Not Found
# Probe 865 (337.664 0 0)  # Not Found
# Probe 866 (338.54 0 0)  # Not Found
# Probe 867 (339.416 0 0)  # Not Found
# Probe 868 (340.292 0 0)  # Not Found
# Probe 869 (341.168 0 0)  # Not Found
# Probe 870 (342.044 0 0)  # Not Found
# Probe 871 (342.92 0 0)  # Not Found
# Probe 872 (343.796 0 0)  # Not Found
# Probe 873 (344.672 0 0)  # Not Found
# Probe 874 (345.547 0 0)  # Not Found
# Probe 875 (346.423 0 0)  # Not Found
# Probe 876 (347.299 0 0)  # Not Found
# Probe 877 (348.175 0 0)  # Not Found
# Probe 878 (349.051 0 0)  # Not Found
# Probe 879 (349.927 0 0)  # Not Found
# Probe 880 (350.803 0 0)  # Not Found
# Probe 881 (351.679 0 0)  # Not Found
# Probe 882 (352.555 0 0)  # Not Found
# Probe 883 (353.431 0 0)  # Not Found
# Probe 884 (354.307 0 0)  # Not Found
# Probe 885 (355.182 0 0)  # Not Found
# Probe 886 (356.058 0 0)  # Not Found
# Probe 887 (356.934 0 0)  # Not Found
# Probe 888 (357.81 0 0)  # Not Found
# Probe 889 (358.686 0 0)  # Not Found
# Probe 890 (359.562 0 0)  # Not Found
# Probe 891 (360.438 0 0)  # Not Found
# Probe 892 (361.314 0 0)  # Not Found
# Probe 893 (362.19 0 0)  # Not Found
# Probe 894 (363.066 0 0)  # Not Found
# Probe 895 (363.942 0 0)  # Not Found
# Probe 896 (364.818 0 0)  # Not Found
# Probe 897 (365.693 0 0)  # Not Found
# Probe 898 (366.569 0 0)  # Not Found
# Probe 899 (367.445 0 0)  # Not Found
# Probe 900 (368.321 0 0)  # Not Found
# Probe 901 (369.197 0 0)  # Not Found
# Probe 902 (370.073 0 0)  # Not Found
# Probe 903 (370.949 0 0)  # Not Found
# Probe 904 (371.825 0 0)  # Not Found
# Probe 905 (372.701 0 0)  # Not Found
# Probe 906 (373.577 0 0)  # Not Found
# Probe 907 (374.453 0 0)  # Not Found
# Probe 908 (375.328 0 0)  # Not Found
# Probe 909 (376.204 0 0)  # Not Found
# Probe 910 (377.08 0 0)  # Not Found
# Probe 911 (377.956 0 0)  # Not Found
# Probe 912 (378.832 0 0)  # Not Found
# Probe 913 (379.708 0 0)  # Not Found
# Probe 914 (380.584 0 0)  # Not Found
# Probe 915 (381.46 0 0)  # Not Found
# Probe 916 (382.336 0 0)  # Not Found
# Probe 917 (383.212 0 0)  # Not Found
# Probe 918 (384.088 0 0)  # Not Found
# Probe 919 (384.964 0 0)  # Not Found
# Probe 920 (385.839 0 0)  # Not Found
# Probe 921 (386.715 0 0)  # Not Found
# Probe 922 (387.591 0 0)  # Not Found
# Probe 923 (388.467 0 0)  # Not Found
# Probe 924 (389.343 0 0)  # Not Found
# Probe 925 (390.219 0 0)  # Not Found
# Probe 926 (391.095 0 0)  # Not Found
# Probe 927 (391.971 0 0)  # Not Found