# Probe 0 (-100 0 0)
# Probe 1 (-99.98 0 0)
# Probe 2 (-99.96 0 0)
# Probe 3 (-99.94 0 0)
# Probe 4 (-99.92 0 0)
# Probe 5 (-99.9 0 0)
# Probe 6 (-99.88 0 0)
# Probe 7 (-99.86 0 0)
# Probe 8 (-99.84 0 0)
# Probe 9 (-99.82 0 0)
# Probe 10 (-99.8 0 0)
# Probe 11 (-99.78 0 0)
# Probe 12 (-99.76 0 0)
# Probe 13 (-99.74 0 0)
# Probe 14 (-99.72 0 0)
# Probe 15 (-99.7 0 0)
# Probe 16 (-99.68 0 0)
# Probe 17 (-99.66 0 0)
# Probe 18 (-99.64 0 0)
# Probe 19 (-99.62 0 0)
# Probe 20 (-99.6 0 0)
# Probe 21 (-99.58 0 0)
# Probe 22 (-99.56 0 0)
# Probe 23 (-99.54 0 0)
# Probe 24 (-99.52 0 0)
# Probe 25 (-99.5 0 0)
# Probe 26 (-99.48 0 0)
# Probe 27 (-99.46 0 0)
# Probe 28 (-99.44 0 0)
# Probe 29 (-99.42 0 0)
# Probe 30 (-99.4 0 0)
# Probe 31 (-99.38 0 0)
# Probe 32 (-99.36 0 0)
# Probe 33 (-99.34 0 0)
# Probe 34 (-99.32 0 0)
# Probe 35 (-99.3 0 0)
# Probe 36 (-99.28 0 0)
# Probe 37 (-99.26 0 0)
# Probe 38 (-99.24 0 0)
# Probe 39 (-99.22 0 0)
# Probe 40 (-99.2 0 0)
# Probe 41 (-99.18 0 0)
# Probe 42 (-99.16 0 0)
# Probe 43 (-99.14 0 0)
# Probe 44 (-99.12 0 0)
# Probe 45 (-99.1 0 0)
# Probe 46 (-99.08 0 0)
# Probe 47 (-99.06 0 0)
# Probe 48 (-99.04 0 0)
# Probe 49 (-99.02 0 0)
# Probe 50 (-99 0 0)
# Probe 51 (-98.98 0 0)
# Probe 52 (-98.96 0 0)
# Probe 53 (-98.94 0 0)
# Probe 54 (-98.92 0 0)
# Probe 55 (-98.9 0 0)
# Probe 56 (-98.88 0 0)
# Probe 57 (-98.86 0 0)
# Probe 58 (-98.84 0 0)
# Probe 59 (-98.82 0 0)
# Probe 60 (-98.8 0 0)
# Probe 61 (-98.78 0 0)
# Probe 62 (-98.76 0 0)
# Probe 63 (-98.74 0 0)
# Probe 64 (-98.72 0 0)
# Probe 65 (-98.7 0 0)
# Probe 66 (-98.68 0 0)
# Probe 67 (-98.66 0 0)
# Probe 68 (-98.64 0 0)
# Probe 69 (-98.62 0 0)
# Probe 70 (-98.6 0 0)
# Probe 71 (-98.58 0 0)
# Probe 72 (-98.56 0 0)
# Probe 73 (-98.54 0 0)
# Probe 74 (-98.52 0 0)
# Probe 75 (-98.5 0 0)
# Probe 76 (-98.48 0 0)
# Probe 77 (-98.46 0 0)
# Probe 78 (-98.44 0 0)
# Probe 79 (-98.42 0 0)
# Probe 80 (-98.4 0 0)
# Probe 81 (-98.38 0 0)
# Probe 82 (-98.36 0 0)
# Probe 83 (-98.34 0 0)
# Probe 84 (-98.32 0 0)
# Probe 85 (-98.3 0 0)
# Probe 86 (-98.28 0 0)
# Probe 87 (-98.26 0 0)
# Probe 88 (-98.24 0 0)
# Probe 89 (-98.22 0 0)
# Probe 90 (-98.2 0 0)
# Probe 91 (-98.18 0 0)
# Probe 92 (-98.16 0 0)
# Probe 93 (-98.14 0 0)
# Probe 94 (-98.12 0 0)
# Probe 95 (-98.1 0 0)
# Probe 96 (-98.08 0 0)
# Probe 97 (-98.06 0 0)
# Probe 98 (-98.04 0 0)
# Probe 99 (-98.02 0 0)
# Probe 100 (-98 0 0)
# Probe 101 (-97.98 0 0)
# Probe 102 (-97.96 0 0)
# Probe 103 (-97.94 0 0)
# Probe 104 (-97.92 0 0)
# Probe 105 (-97.9 0 0)
# Probe 106 (-97.88 0 0)
# Probe 107 (-97.86 0 0)
# Probe 108 (-97.84 0 0)
# Probe 109 (-97.82 0 0)
# Probe 110 (-97.8 0 0)
# Probe 111 (-97.78 0 0)
# Probe 112 (-97.76 0 0)
# Probe 113 (-97.74 0 0)
# Probe 114 (-97.72 0 0)
# Probe 115 (-97.7 0 0)
# Probe 116 (-97.68 0 0)
# Probe 117 (-97.66 0 0)
# Probe 118 (-97.64 0 0)
# Probe 119 (-97.62 0 0)
# Probe 120 (-97.6 0 0)
# Probe 121 (-97.58 0 0)
# Probe 122 (-97.56 0 0)
# Probe 123 (-97.54 0 0)
# Probe 124 (-97.52 0 0)
# Probe 125 (-97.5 0 0)
# Probe 126 (-97.48 0 0)
# Probe 127 (-97.46 0 0)
# Probe 128 (-97.44 0 0)
# Probe 129 (-97.42 0 0)
# Probe 130 (-97.4 0 0)
# Probe 131 (-97.38 0 0)
# Probe 132 (-97.36 0 0)
# Probe 133 (-97.34 0 0)
# Probe 134 (-97.32 0 0)
# Probe 135 (-97.3 0 0)
# Probe 136 (-97.28 0 0)
# Probe 137 (-97.26 0 0)
# Probe 138 (-97.24 0 0)
# Probe 139 (-97.22 0 0)
# Probe 140 (-97.2 0 0)
# Probe 141 (-97.18 0 0)
# Probe 142 (-97.16 0 0)
# Probe 143 (-97.14 0 0)
# Probe 144 (-97.12 0 0)
# Probe 145 (-97.1 0 0)
# Probe 146 (-97.08 0 0)
# Probe 147 (-97.06 0 0)
# Probe 148 (-97.04 0 0)
# Probe 149 (-97.02 0 0)
# Probe 150 (-97 0 0)
# Probe 151 (-96.98 0 0)
# Probe 152 (-96.96 0 0)
# Probe 153 (-96.94 0 0)
# Probe 154 (-96.92 0 0)
# Probe 155 (-96.9 0 0)
# Probe 156 (-96.88 0 0)
# Probe 157 (-96.86 0 0)
# Probe 158 (-96.84 0 0)
# Probe 159 (-96.82 0 0)
# Probe 160 (-96.8 0 0)
# Probe 161 (-96.78 0 0)
# Probe 162 (-96.76 0 0)
# Probe 163 (-96.74 0 0)
# Probe 164 (-96.72 0 0)
# Probe 165 (-96.7 0 0)
# Probe 166 (-96.68 0 0)
# Probe 167 (-96.66 0 0)
# Probe 168 (-96.64 0 0)
# Probe 169 (-96.62 0 0)
# Probe 170 (-96.6 0 0)
# Probe 171 (-96.58 0 0)
# Probe 172 (-96.56 0 0)
# Probe 173 (-96.54 0 0)
# Probe 174 (-96.52 0 0)
# Probe 175 (-96.5 0 0)
# Probe 176 (-96.48 0 0)
# Probe 177 (-96.46 0 0)
# Probe 178 (-96.44 0 0)
# Probe 179 (-96.42 0 0)
# Probe 180 (-96.4 0 0)
# Probe 181 (-96.38 0 0)
# Probe 182 (-96.36 0 0)
# Probe 183 (-96.34 0 0)
# Probe 184 (-96.32 0 0)
# Probe 185 (-96.3 0 0)
# Probe 186 (-96.28 0 0)
# Probe 187 (-96.26 0 0)
# Probe 188 (-96.24 0 0)
# Probe 189 (-96.22 0 0)
# Probe 190 (-96.2 0 0)
# Probe 191 (-96.18 0 0)
# Probe 192 (-96.16 0 0)
# Probe 193 (-96.14 0 0)
# Probe 194 (-96.12 0 0)
# Probe 195 (-96.1 0 0)
# Probe 196 (-96.08 0 0)
# Probe 197 (-96.06 0 0)
# Probe 198 (-96.04 0 0)
# Probe 199 (-96.02 0 0)
# Probe 200 (-96 0 0)
# Probe 201 (-95.98 0 0)
# Probe 202 (-95.96 0 0)
# Probe 203 (-95.94 0 0)
# Probe 204 (-95.92 0 0)
# Probe 205 (-95.9 0 0)
# Probe 206 (-95.88 0 0)
# Probe 207 (-95.86 0 0)
# Probe 208 (-95.84 0 0)
# Probe 209 (-95.82 0 0)
# Probe 210 (-95.8 0 0)
# Probe 211 (-95.78 0 0)
# Probe 212 (-95.76 0 0)
# Probe 213 (-95.74 0 0)
# Probe 214 (-95.72 0 0)
# Probe 215 (-95.7 0 0)
# Probe 216 (-95.68 0 0)
# Probe 217 (-95.66 0 0)
# Probe 218 (-95.64 0 0)
# Probe 219 (-95.62 0 0)
# Probe 220 (-95.6 0 0)
# Probe 221 (-95.58 0 0)
# Probe 222 (-95.56 0 0)
# Probe 223 (-95.54 0 0)
# Probe 224 (-95.52 0 0)
# Probe 225 (-95.5 0 0)
# Probe 226 (-95.48 0 0)
# Probe 227 (-95.46 0 0)
# Probe 228 (-95.44 0 0)
# Probe 229 (-95.42 0 0)
# Probe 230 (-95.4 0 0)
# Probe 231 (-95.38 0 0)
# Probe 232 (-95.36 0 0)
# Probe 233 (-95.34 0 0)
# Probe 234 (-95.32 0 0)
# Probe 235 (-95.3 0 0)
# Probe 236 (-95.28 0 0)
# Probe 237 (-95.26 0 0)
# Probe 238 (-95.24 0 0)
# Probe 239 (-95.22 0 0)
# Probe 240 (-95.2 0 0)
# Probe 241 (-95.18 0 0)
# Probe 242 (-95.16 0 0)
# Probe 243 (-95.14 0 0)
# Probe 244 (-95.12 0 0)
# Probe 245 (-95.1 0 0)
# Probe 246 (-95.08 0 0)
# Probe 247 (-95.06 0 0)
# Probe 248 (-95.04 0 0)
# Probe 249 (-95.02 0 0)
# Probe 250 (-94.999 0 0)
# Probe 251 (-94.979 0 0)
# Probe 252 (-94.959 0 0)
# Probe 253 (-94.939 0 0)
# Probe 254 (-94.919 0 0)
# Probe 255 (-94.899 0 0)
# Probe 256 (-94.879 0 0)
# Probe 257 (-94.859 0 0)
# Probe 258 (-94.839 0 0)
# Probe 259 (-94.819 0 0)
# Probe 260 (-94.799 0 0)
# Probe 261 (-94.779 0 0)
# Probe 262 (-94.759 0 0)
# Probe 263 (-94.739 0 0)
# Probe 264 (-94.719 0 0)
# Probe 265 (-94.699 0 0)
# Probe 266 (-94.679 0 0)
# Probe 267 (-94.659 0 0)
# Probe 268 (-94.639 0 0)
# Probe 269 (-94.619 0 0)
# Probe 270 (-94.599 0 0)
# Probe 271 (-94.579 0 0)
# Probe 272 (-94.559 0 0)
# Probe 273 (-94.539 0 0)
# Probe 274 (-94.519 0 0)
# Probe 275 (-94.499 0 0)
# Probe 276 (-94.479 0 0)
# Probe 277 (-94.459 0 0)
# Probe 278 (-94.439 0 0)
# Probe 279 (-94.419 0 0)
# Probe 280 (-94.399 0 0)
# Probe 281 (-94.379 0 0)
# Probe 282 (-94.359 0 0)
# Probe 283 (-94.339 0 0)
# Probe 284 (-94.319 0 0)
# Probe 285 (-94.299 0 0)
# Probe 286 (-94.279 0 0)
# Probe 287 (-94.259 0 0)
# Probe 288 (-94.239 0 0)
# Probe 289 (-94.219 0 0)
# Probe 290 (-94.199 0 0)
# Probe 291 (-94.179 0 0)
# Probe 292 (-94.159 0 0)
# Probe 293 (-94.139 0 0)
# Probe 294 (-94.119 0 0)
# Probe 295 (-94.099 0 0)
# Probe 296 (-94.079 0 0)
# Probe 297 (-94.059 0 0)
# Probe 298 (-94.039 0 0)
# Probe 299 (-94.019 0 0)
# Probe 300 (-93.999 0 0)
# Probe 301 (-93.979 0 0)
# Probe 302 (-93.959 0 0)
# Probe 303 (-93.939 0 0)
# Probe 304 (-93.919 0 0)
# Probe 305 (-93.899 0 0)
# Probe 306 (-93.879 0 0)
# Probe 307 (-93.859 0 0)
# Probe 308 (-93.839 0 0)
# Probe 309 (-93.819 0 0)
# Probe 310 (-93.799 0 0)
# Probe 311 (-93.779 0 0)
# Probe 312 (-93.759 0 0)
# Probe 313 (-93.739 0 0)
# Probe 314 (-93.719 0 0)
# Probe 315 (-93.699 0 0)
# Probe 316 (-93.679 0 0)
# Probe 317 (-93.659 0 0)
# Probe 318 (-93.639 0 0)
# Probe 319 (-93.619 0 0)
# Probe 320 (-93.599 0 0)
# Probe 321 (-93.579 0 0)
# Probe 322 (-93.559 0 0)
# Probe 323 (-93.539 0 0)
# Probe 324 (-93.519 0 0)
# Probe 325 (-93.499 0 0)
# Probe 326 (-93.479 0 0)
# Probe 327 (-93.459 0 0)
# Probe 328 (-93.439 0 0)
# Probe 329 (-93.419 0 0)
# Probe 330 (-93.399 0 0)
# Probe 331 (-93.379 0 0)
# Probe 332 (-93.359 0 0)
# Probe 333 (-93.339 0 0)
# Probe 334 (-93.319 0 0)
# Probe 335 (-93.299 0 0)
# Probe 336 (-93.279 0 0)
# Probe 337 (-93.259 0 0)
# Probe 338 (-93.239 0 0)
# Probe 339 (-93.219 0 0)
# Probe 340 (-93.199 0 0)
# Probe 341 (-93.179 0 0)
# Probe 342 (-93.159 0 0)
# Probe 343 (-93.139 0 0)
# Probe 344 (-93.119 0 0)
# Probe 345 (-93.099 0 0)
# Probe 346 (-93.079 0 0)
# Probe 347 (-93.059 0 0)
# Probe 348 (-93.039 0 0)
# Probe 349 (-93.019 0 0)
# Probe 350 (-92.999 0 0)
# Probe 351 (-92.979 0 0)
# Probe 352 (-92.959 0 0)
# Probe 353 (-92.939 0 0)
# Probe 354 (-92.919 0 0)
# Probe 355 (-92.899 0 0)
# Probe 356 (-92.879 0 0)
# Probe 357 (-92.859 0 0)
# Probe 358 (-92.839 0 0)
# Probe 359 (-92.819 0 0)
# Probe 360 (-92.799 0 0)
# Probe 361 (-92.779 0 0)
# Probe 362 (-92.759 0 0)
# Probe 363 (-92.739 0 0)
# Probe 364 (-92.719 0 0)
# Probe 365 (-92.699 0 0)
# Probe 366 (-92.679 0 0)
# Probe 367 (-92.659 0 0)
# Probe 368 (-92.639 0 0)
# Probe 369 (-92.619 0 0)
# Probe 370 (-92.599 0 0)
# Probe 371 (-92.579 0 0)
# Probe 372 (-92.559 0 0)
# Probe 373 (-92.539 0 0)
# Probe 374 (-92.519 0 0)
# Probe 375 (-92.499 0 0)
# Probe 376 (-92.479 0 0)
# Probe 377 (-92.459 0 0)
# Probe 378 (-92.439 0 0)
# Probe 379 (-92.419 0 0)
# Probe 380 (-92.399 0 0)
# Probe 381 (-92.379 0 0)
# Probe 382 (-92.359 0 0)
# Probe 383 (-92.339 0 0)
# Probe 384 (-92.319 0 0)
# Probe 385 (-92.299 0 0)
# Probe 386 (-92.279 0 0)
# Probe 387 (-92.259 0 0)
# Probe 388 (-92.239 0 0)
# Probe 389 (-92.219 0 0)
# Probe 390 (-92.199 0 0)
# Probe 391 (-92.179 0 0)
# Probe 392 (-92.159 0 0)
# Probe 393 (-92.139 0 0)
# Probe 394 (-92.119 0 0)
# Probe 395 (-92.099 0 0)
# Probe 396 (-92.079 0 0)
# Probe 397 (-92.059 0 0)
# Probe 398 (-92.039 0 0)
# Probe 399 (-92.019 0 0)
# Probe 400 (-91.999 0 0)
# Probe 401 (-91.979 0 0)
# Probe 402 (-91.959 0 0)
# Probe 403 (-91.939 0 0)
# Probe 404 (-91.919 0 0)
# Probe 405 (-91.899 0 0)
# Probe 406 (-91.879 0 0)
# Probe 407 (-91.859 0 0)
# Probe 408 (-91.839 0 0)
# Probe 409 (-91.819 0 0)
# Probe 410 (-91.799 0 0)
# Probe 411 (-91.779 0 0)
# Probe 412 (-91.759 0 0)
# Probe 413 (-91.739 0 0)
# Probe 414 (-91.719 0 0)
# Probe 415 (-91.699 0 0)
# Probe 416 (-91.679 0 0)
# Probe 417 (-91.659 0 0)
# Probe 418 (-91.639 0 0)
# Probe 419 (-91.619 0 0)
# Probe 420 (-91.599 0 0)
# Probe 421 (-91.579 0 0)
# Probe 422 (-91.559 0 0)
# Probe 423 (-91.539 0 0)
# Probe 424 (-91.519 0 0)
# Probe 425 (-91.499 0 0)
# Probe 426 (-91.479 0 0)
# Probe 427 (-91.459 0 0)
# Probe 428 (-91.439 0 0)
# Probe 429 (-91.419 0 0)
# Probe 430 (-91.399 0 0)
# Probe 431 (-91.379 0 0)
# Probe 432 (-91.359 0 0)
# Probe 433 (-91.339 0 0)
# Probe 434 (-91.319 0 0)
# Probe 435 (-91.299 0 0)
# Probe 436 (-91.279 0 0)
# Probe 437 (-91.259 0 0)
# Probe 438 (-91.239 0 0)
# Probe 439 (-91.219 0 0)
# Probe 440 (-91.199 0 0)
# Probe 441 (-91.179 0 0)
# Probe 442 (-91.159 0 0)
# Probe 443 (-91.139 0 0)
# Probe 444 (-91.119 0 0)
# Probe 445 (-91.099 0 0)
# Probe 446 (-91.079 0 0)
# Probe 447 (-91.059 0 0)
# Probe 448 (-91.039 0 0)
# Probe 449 (-91.019 0 0)
# Probe 450 (-90.999 0 0)
# Probe 451 (-90.979 0 0)
# Probe 452 (-90.959 0 0)
# Probe 453 (-90.939 0 0)
# Probe 454 (-90.919 0 0)
# Probe 455 (-90.899 0 0)
# Probe 456 (-90.879 0 0)
# Probe 457 (-90.859 0 0)
# Probe 458 (-90.839 0 0)
# Probe 459 (-90.819 0 0)
# Probe 460 (-90.799 0 0)
# Probe 461 (-90.779 0 0)
# Probe 462 (-90.759 0 0)
# Probe 463 (-90.739 0 0)
# Probe 464 (-90.719 0 0)
# Probe 465 (-90.699 0 0)
# Probe 466 (-90.679 0 0)
# Probe 467 (-90.659 0 0)
# Probe 468 (-90.639 0 0)
# Probe 469 (-90.619 0 0)
# Probe 470 (-90.599 0 0)
# Probe 471 (-90.579 0 0)
# Probe 472 (-90.559 0 0)
# Probe 473 (-90.539 0 0)
# Probe 474 (-90.519 0 0)
# Probe 475 (-90.499 0 0)
# Probe 476 (-90.479 0 0)
# Probe 477 (-90.459 0 0)
# Probe 478 (-90.439 0 0)
# Probe 479 (-90.419 0 0)
# Probe 480 (-90.399 0 0)
# Probe 481 (-90.379 0 0)
# Probe 482 (-90.359 0 0)
# Probe 483 (-90.339 0 0)
# Probe 484 (-90.319 0 0)
# Probe 485 (-90.299 0 0)
# Probe 486 (-90.279 0 0)
# Probe 487 (-90.259 0 0)
# Probe 488 (-90.239 0 0)
# Probe 489 (-90.219 0 0)
# Probe 490 (-90.199 0 0)
# Probe 491 (-90.179 0 0)
# Probe 492 (-90.159 0 0)
# Probe 493 (-90.139 0 0)
# Probe 494 (-90.119 0 0)
# Probe 495 (-90.099 0 0)
# Probe 496 (-90.079 0 0)
# Probe 497 (-90.059 0 0)
# Probe 498 (-90.039 0 0)
# Probe 499 (-90.019 0 0)
# Probe 500 (-89.999 0 0)
# Probe 501 (-89.979 0 0)
# Probe 502 (-89.959 0 0)
# Probe 503 (-89.939 0 0)
# Probe 504 (-89.919 0 0)
# Probe 505 (-89.899 0 0)
# Probe 506 (-89.879 0 0)
# Probe 507 (-89.859 0 0)
# Probe 508 (-89.839 0 0)
# Probe 509 (-89.819 0 0)
# Probe 510 (-89.799 0 0)
# Probe 511 (-89.779 0 0)
# Probe 512 (-89.759 0 0)
# Probe 513 (-89.739 0 0)
# Probe 514 (-89.719 0 0)
# Probe 515 (-89.699 0 0)
# Probe 516 (-89.679 0 0)
# Probe 517 (-89.659 0 0)
# Probe 518 (-89.639 0 0)
# Probe 519 (-89.619 0 0)
# Probe 520 (-89.599 0 0)
# Probe 521 (-89.579 0 0)
# Probe 522 (-89.559 0 0)
# Probe 523 (-89.539 0 0)
# Probe 524 (-89.519 0 0)
# Probe 525 (-89.499 0 0)
# Probe 526 (-89.479 0 0)
# Probe 527 (-89.459 0 0)
# Probe 528 (-89.439 0 0)
# Probe 529 (-89.419 0 0)
# Probe 530 (-89.399 0 0)
# Probe 531 (-89.379 0 0)
# Probe 532 (-89.359 0 0)
# Probe 533 (-89.339 0 0)
# Probe 534 (-89.319 0 0)
# Probe 535 (-89.299 0 0)
# Probe 536 (-89.279 0 0)
# Probe 537 (-89.259 0 0)
# Probe 538 (-89.239 0 0)
# Probe 539 (-89.219 0 0)
# Probe 540 (-89.199 0 0)
# Probe 541 (-89.179 0 0)
# Probe 542 (-89.159 0 0)
# Probe 543 (-89.139 0 0)
# Probe 544 (-89.119 0 0)
# Probe 545 (-89.099 0 0)
# Probe 546 (-89.079 0 0)
# Probe 547 (-89.059 0 0)
# Probe 548 (-89.039 0 0)
# Probe 549 (-89.019 0 0)
# Probe 550 (-88.999 0 0)
# Probe 551 (-88.979 0 0)
# Probe 552 (-88.959 0 0)
# Probe 553 (-88.939 0 0)
# Probe 554 (-88.919 0 0)
# Probe 555 (-88.899 0 0)
# Probe 556 (-88.879 0 0)
# Probe 557 (-88.859 0 0)
# Probe 558 (-88.839 0 0)
# Probe 559 (-88.819 0 0)
# Probe 560 (-88.799 0 0)
# Probe 561 (-88.779 0 0)
# Probe 562 (-88.759 0 0)
# Probe 563 (-88.739 0 0)
# Probe 564 (-88.719 0 0)
# Probe 565 (-88.699 0 0)
# Probe 566 (-88.679 0 0)
# Probe 567 (-88.659 0 0)
# Probe 568 (-88.639 0 0)
# Probe 569 (-88.619 0 0)
# Probe 570 (-88.599 0 0)
# Probe 571 (-88.579 0 0)
# Probe 572 (-88.559 0 0)
# Probe 573 (-88.539 0 0)
# Probe 574 (-88.519 0 0)
# Probe 575 (-88.499 0 0)
# Probe 576 (-88.479 0 0)
# Probe 577 (-88.459 0 0)
# Probe 578 (-88.439 0 0)
# Probe 579 (-88.419 0 0)
# Probe 580 (-88.399 0 0)
# Probe 581 (-88.379 0 0)
# Probe 582 (-88.359 0 0)
# Probe 583 (-88.339 0 0)
# Probe 584 (-88.319 0 0)
# Probe 585 (-88.299 0 0)
# Probe 586 (-88.279 0 0)
# Probe 587 (-88.259 0 0)
# Probe 588 (-88.239 0 0)
# Probe 589 (-88.219 0 0)
# Probe 590 (-88.199 0 0)
# Probe 591 (-88.179 0 0)
# Probe 592 (-88.159 0 0)
# Probe 593 (-88.139 0 0)
# Probe 594 (-88.119 0 0)
# Probe 595 (-88.099 0 0)
# Probe 596 (-88.079 0 0)
# Probe 597 (-88.059 0 0)
# Probe 598 (-88.039 0 0)
# Probe 599 (-88.019 0 0)
# Probe 600 (-87.999 0 0)
# Probe 601 (-87.979 0 0)
# Probe 602 (-87.959 0 0)
# Probe 603 (-87.939 0 0)
# Probe 604 (-87.919 0 0)
# Probe 605 (-87.899 0 0)
# Probe 606 (-87.879 0 0)
# Probe 607 (-87.859 0 0)
# Probe 608 (-87.839 0 0)
# Probe 609 (-87.819 0 0)
# Probe 610 (-87.799 0 0)
# Probe 611 (-87.779 0 0)
# Probe 612 (-87.759 0 0)
# Probe 613 (-87.739 0 0)
# Probe 614 (-87.719 0 0)
# Probe 615 (-87.699 0 0)
# Probe 616 (-87.679 0 0)
# Probe 617 (-87.659 0 0)
# Probe 618 (-87.639 0 0)
# Probe 619 (-87.619 0 0)
# Probe 620 (-87.599 0 0)
# Probe 621 (-87.579 0 0)
# Probe 622 (-87.559 0 0)
# Probe 623 (-87.539 0 0)
# Probe 624 (-87.519 0 0)
# Probe 625 (-87.499 0 0)
# Probe 626 (-87.479 0 0)
# Probe 627 (-87.459 0 0)
# Probe 628 (-87.439 0 0)
# Probe 629 (-87.419 0 0)
# Probe 630 (-87.399 0 0)
# Probe 631 (-87.379 0 0)
# Probe 632 (-87.359 0 0)
# Probe 633 (-87.339 0 0)
# Probe 634 (-87.319 0 0)
# Probe 635 (-87.299 0 0)
# Probe 636 (-87.279 0 0)
# Probe 637 (-87.259 0 0)
# Probe 638 (-87.239 0 0)
# Probe 639 (-87.219 0 0)
# Probe 640 (-87.199 0 0)
# Probe 641 (-87.179 0 0)
# Probe 642 (-87.159 0 0)
# Probe 643 (-87.139 0 0)
# Probe 644 (-87.119 0 0)
# Probe 645 (-87.099 0 0)
# Probe 646 (-87.079 0 0)
# Probe 647 (-87.059 0 0)
# Probe 648 (-87.039 0 0)
# Probe 649 (-87.019 0 0)
# Probe 650 (-86.999 0 0)
# Probe 651 (-86.979 0 0)
# Probe 652 (-86.959 0 0)
# Probe 653 (-86.939 0 0)
# Probe 654 (-86.919 0 0)
# Probe 655 (-86.899 0 0)
# Probe 656 (-86.879 0 0)
# Probe 657 (-86.859 0 0)
# Probe 658 (-86.839 0 0)
# Probe 659 (-86.819 0 0)
# Probe 660 (-86.799 0 0)
# Probe 661 (-86.779 0 0)
# Probe 662 (-86.759 0 0)
# Probe 663 (-86.739 0 0)
# Probe 664 (-86.719 0 0)
# Probe 665 (-86.699 0 0)
# Probe 666 (-86.679 0 0)
# Probe 667 (-86.659 0 0)
# Probe 668 (-86.639 0 0)
# Probe 669 (-86.619 0 0)
# Probe 670 (-86.599 0 0)
# Probe 671 (-86.579 0 0)
# Probe 672 (-86.559 0 0)
# Probe 673 (-86.539 0 0)
# Probe 674 (-86.519 0 0)
# Probe 675 (-86.499 0 0)
# Probe 676 (-86.479 0 0)
# Probe 677 (-86.459 0 0)
# Probe 678 (-86.439 0 0)
# Probe 679 (-86.419 0 0)
# Probe 680 (-86.399 0 0)
# Probe 681 (-86.379 0 0)
# Probe 682 (-86.359 0 0)
# Probe 683 (-86.339 0 0)
# Probe 684 (-86.319 0 0)
# Probe 685 (-86.299 0 0)
# Probe 686 (-86.279 0 0)
# Probe 687 (-86.259 0 0)
# Probe 688 (-86.239 0 0)
# Probe 689 (-86.219 0 0)
# Probe 690 (-86.199 0 0)
# Probe 691 (-86.179 0 0)
# Probe 692 (-86.159 0 0)
# Probe 693 (-86.139 0 0)
# Probe 694 (-86.119 0 0)
# Probe 695 (-86.099 0 0)
# Probe 696 (-86.079 0 0)
# Probe 697 (-86.059 0 0)
# Probe 698 (-86.039 0 0)
# Probe 699 (-86.019 0 0)
# Probe 700 (-85.999 0 0)
# Probe 701 (-85.979 0 0)
# Probe 702 (-85.959 0 0)
# Probe 703 (-85.939 0 0)
# Probe 704 (-85.919 0 0)
# Probe 705 (-85.899 0 0)
# Probe 706 (-85.879 0 0)
# Probe 707 (-85.859 0 0)
# Probe 708 (-85.839 0 0)
# Probe 709 (-85.819 0 0)
# Probe 710 (-85.799 0 0)
# Probe 711 (-85.779 0 0)
# Probe 712 (-85.759 0 0)
# Probe 713 (-85.739 0 0)
# Probe 714 (-85.719 0 0)
# Probe 715 (-85.699 0 0)
# Probe 716 (-85.679 0 0)
# Probe 717 (-85.659 0 0)
# Probe 718 (-85.639 0 0)
# Probe 719 (-85.619 0 0)
# Probe 720 (-85.599 0 0)
# Probe 721 (-85.579 0 0)
# Probe 722 (-85.559 0 0)
# Probe 723 (-85.539 0 0)
# Probe 724 (-85.519 0 0)
# Probe 725 (-85.499 0 0)
# Probe 726 (-85.479 0 0)
# Probe 727 (-85.459 0 0)
# Probe 728 (-85.439 0 0)
# Probe 729 (-85.419 0 0)
# Probe 730 (-85.399 0 0)
# Probe 731 (-85.379 0 0)
# Probe 732 (-85.359 0 0)
# Probe 733 (-85.339 0 0)
# Probe 734 (-85.319 0 0)
# Probe 735 (-85.299 0 0)
# Probe 736 (-85.279 0 0)
# Probe 737 (-85.259 0 0)
# Probe 738 (-85.239 0 0)
# Probe 739 (-85.219 0 0)
# Probe 740 (-85.199 0 0)
# Probe 741 (-85.179 0 0)
# Probe 742 (-85.159 0 0)
# Probe 743 (-85.139 0 0)
# Probe 744 (-85.119 0 0)
# Probe 745 (-85.099 0 0)
# Probe 746 (-85.079 0 0)
# Probe 747 (-85.059 0 0)
# Probe 748 (-85.039 0 0)
# Probe 749 (-85.019 0 0)
# Probe 750 (-84.998 0 0)
# Probe 751 (-84.978 0 0)
# Probe 752 (-84.958 0 0)
# Probe 753 (-84.938 0 0)
# Probe 754 (-84.918 0 0)
# Probe 755 (-84.898 0 0)
# Probe 756 (-84.878 0 0)
# Probe 757 (-84.858 0 0)
# Probe 758 (-84.838 0 0)
# Probe 759 (-84.818 0 0)
# Probe 760 (-84.798 0 0)
# Probe 761 (-84.778 0 0)
# Probe 762 (-84.758 0 0)
# Probe 763 (-84.738 0 0)
# Probe 764 (-84.718 0 0)
# Probe 765 (-84.698 0 0)
# Probe 766 (-84.678 0 0)
# Probe 767 (-84.658 0 0)
# Probe 768 (-84.638 0 0)
# Probe 769 (-84.618 0 0)
# Probe 770 (-84.598 0 0)
# Probe 771 (-84.578 0 0)
# Probe 772 (-84.558 0 0)
# Probe 773 (-84.538 0 0)
# Probe 774 (-84.518 0 0)
# Probe 775 (-84.498 0 0)
# Probe 776 (-84.478 0 0)
# Probe 777 (-84.458 0 0)
# Probe 778 (-84.438 0 0)
# Probe 779 (-84.418 0 0)
# Probe 780 (-84.398 0 0)
# Probe 781 (-84.378 0 0)
# Probe 782 (-84.358 0 0)
# Probe 783 (-84.338 0 0)
# Probe 784 (-84.318 0 0)
# Probe 785 (-84.298 0 0)
# Probe 786 (-84.278 0 0)
# Probe 787 (-84.258 0 0)
# Probe 788 (-84.238 0 0)
# Probe 789 (-84.218 0 0)
# Probe 790 (-84.198 0 0)
# Probe 791 (-84.178 0 0)
# Probe 792 (-84.158 0 0)
# Probe 793 (-84.138 0 0)
# Probe 794 (-84.118 0 0)
# Probe 795 (-84.098 0 0)
# Probe 796 (-84.078 0 0)
# Probe 797 (-84.058 0 0)
# Probe 798 (-84.038 0 0)
# Probe 799 (-84.018 0 0)
# Probe 800 (-83.998 0 0)
# Probe 801 (-83.978 0 0)
# Probe 802 (-83.958 0 0)
# Probe 803 (-83.938 0 0)
# Probe 804 (-83.918 0 0)
# Probe 805 (-83.898 0 0)
# Probe 806 (-83.878 0 0)
# Probe 807 (-83.858 0 0)
# Probe 808 (-83.838 0 0)
# Probe 809 (-83.818 0 0)
# Probe 810 (-83.798 0 0)
# Probe 811 (-83.778 0 0)
# Probe 812 (-83.758 0 0)
# Probe 813 (-83.738 0 0)
# Probe 814 (-83.718 0 0)
# Probe 815 (-83.698 0 0)
# Probe 816 (-83.678 0 0)
# Probe 817 (-83.658 0 0)
# Probe 818 (-83.638 0 0)
# Probe 819 (-83.618 0 0)
# Probe 820 (-83.598 0 0)
# Probe 821 (-83.578 0 0)
# Probe 822 (-83.558 0 0)
# Probe 823 (-83.538 0 0)
# Probe 824 (-83.518 0 0)
# Probe 825 (-83.498 0 0)
# Probe 826 (-83.478 0 0)
# Probe 827 (-83.458 0 0)
# Probe 828 (-83.438 0 0)
# Probe 829 (-83.418 0 0)
# Probe 830 (-83.398 0 0)
# Probe 831 (-83.378 0 0)
# Probe 832 (-83.358 0 0)
# Probe 833 (-83.338 0 0)
# Probe 834 (-83.318 0 0)
# Probe 835 (-83.298 0 0)
# Probe 836 (-83.278 0 0)
# Probe 837 (-83.258 0 0)
# Probe 838 (-83.238 0 0)
# Probe 839 (-83.218 0 0)
# Probe 840 (-83.198 0 0)
# Probe 841 (-83.178 0 0)
# Probe 842 (-83.158 0 0)
# Probe 843 (-83.138 0 0)
# Probe 844 (-83.118 0 0)
# Probe 845 (-83.098 0 0)
# Probe 846 (-83.078 0 0)
# Probe 847 (-83.058 0 0)
# Probe 848 (-83.038 0 0)
# Probe 849 (-83.018 0 0)
# Probe 850 (-82.998 0 0)
# Probe 851 (-82.978 0 0)
# Probe 852 (-82.958 0 0)
# Probe 853 (-82.938 0 0)
# Probe 854 (-82.918 0 0)
# Probe 855 (-82.898 0 0)
# Probe 856 (-82.878 0 0)
# Probe 857 (-82.858 0 0)
# Probe 858 (-82.838 0 0)
# Probe 859 (-82.818 0 0)
# Probe 860 (-82.798 0 0)
# Probe 861 (-82.778 0 0)
# Probe 862 (-82.758 0 0)
# Probe 863 (-82.738 0 0)
# Probe 864 (-82.718 0 0)
# Probe 865 (-82.698 0 0)
# Probe 866 (-82.678 0 0)
# Probe 867 (-82.658 0 0)
# Probe 868 (-82.638 0 0)
# Probe 869 (-82.618 0 0)
# Probe 870 (-82.598 0 0)
# Probe 871 (-82.578 0 0)
# Probe 872 (-82.558 0 0)
# Probe 873 (-82.538 0 0)
# Probe 874 (-82.518 0 0)
# Probe 875 (-82.498 0 0)
# Probe 876 (-82.478 0 0)
# Probe 877 (-82.458 0 0)
# Probe 878 (-82.438 0 0)
# Probe 879 (-82.418 0 0)
# Probe 880 (-82.398 0 0)
# Probe 881 (-82.378 0 0)
# Probe 882 (-82.358 0 0)
# Probe 883 (-82.338 0 0)
# Probe 884 (-82.318 0 0)
# Probe 885 (-82.298 0 0)
# Probe 886 (-82.278 0 0)
# Probe 887 (-82.258 0 0)
# Probe 888 (-82.238 0 0)
# Probe 889 (-82.218 0 0)
# Probe 890 (-82.198 0 0)
# Probe 891 (-82.178 0 0)
# Probe 892 (-82.158 0 0)
# Probe 893 (-82.138 0 0)
# Probe 894 (-82.118 0 0)
# Probe 895 (-82.098 0 0)
# Probe 896 (-82.078 0 0)
# Probe 897 (-82.058 0 0)
# Probe 898 (-82.038 0 0)
# Probe 899 (-82.018 0 0)
# Probe 900 (-81.998 0 0)
# Probe 901 (-81.978 0 0)
# Probe 902 (-81.958 0 0)
# Probe 903 (-81.938 0 0)
# Probe 904 (-81.918 0 0)
# Probe 905 (-81.898 0 0)
# Probe 906 (-81.878 0 0)
# Probe 907 (-81.858 0 0)
# Probe 908 (-81.838 0 0)
# Probe 909 (-81.818 0 0)
# Probe 910 (-81.798 0 0)
# Probe 911 (-81.778 0 0)
# Probe 912 (-81.758 0 0)
# Probe 913 (-81.738 0 0)
# Probe 914 (-81.718 0 0)
# Probe 915 (-81.698 0 0)
# Probe 916 (-81.678 0 0)
# Probe 917 (-81.658 0 0)
# Probe 918 (-81.638 0 0)
# Probe 919 (-81.618 0 0)
# Probe 920 (-81.598 0 0)
# Probe 921 (-81.578 0 0)
# Probe 922 (-81.558 0 0)
# Probe 923 (-81.538 0 0)
# Probe 924 (-81.518 0 0)
# Probe 925 (-81.498 0 0)
# Probe 926 (-81.478 0 0)
# Probe 927 (-81.458 0 0)
# Probe 928 (-81.438 0 0)
# Probe 929 (-81.418 0 0)
# Probe 930 (-81.398 0 0)
# Probe 931 (-81.378 0 0)
# Probe 932 (-81.358 0 0)
# Probe 933 (-81.338 0 0)
# Probe 934 (-81.318 0 0)
# Probe 935 (-81.298 0 0)
# Probe 936 (-81.278 0 0)
# Probe 937 (-81.258 0 0)
# Probe 938 (-81.238 0 0)
# Probe 939 (-81.218 0 0)
# Probe 940 (-81.198 0 0)
# Probe 941 (-81.178 0 0)
# Probe 942 (-81.158 0 0)
# Probe 943 (-81.138 0 0)
# Probe 944 (-81.118 0 0)
# Probe 945 (-81.098 0 0)
# Probe 946 (-81.078 0 0)
# Probe 947 (-81.058 0 0)
# Probe 948 (-81.038 0 0)
# Probe 949 (-81.018 0 0)
# Probe 950 (-80.998 0 0)
# Probe 951 (-80.978 0 0)
# Probe 952 (-80.958 0 0)
# Probe 953 (-80.938 0 0)
# Probe 954 (-80.918 0 0)
# Probe 955 (-80.898 0 0)
# Probe 956 (-80.878 0 0)
# Probe 957 (-80.858 0 0)
# Probe 958 (-80.838 0 0)
# Probe 959 (-80.818 0 0)
# Probe 960 (-80.798 0 0)
# Probe 961 (-80.778 0 0)
# Probe 962 (-80.758 0 0)
# Probe 963 (-80.738 0 0)
# Probe 964 (-80.718 0 0)
# Probe 965 (-80.698 0 0)
# Probe 966 (-80.678 0 0)
# Probe 967 (-80.658 0 0)
# Probe 968 (-80.638 0 0)
# Probe 969 (-80.618 0 0)
# Probe 970 (-80.598 0 0)
# Probe 971 (-80.578 0 0)
# Probe 972 (-80.558 0 0)
# Probe 973 (-80.538 0 0)
# Probe 974 (-80.518 0 0)
# Probe 975 (-80.498 0 0)
# Probe 976 (-80.478 0 0)
# Probe 977 (-80.458 0 0)
# Probe 978 (-80.438 0 0)
# Probe 979 (-80.418 0 0)
# Probe 980 (-80.398 0 0)
# Probe 981 (-80.378 0 0)
# Probe 982 (-80.358 0 0)
# Probe 983 (-80.338 0 0)
# Probe 984 (-80.318 0 0)
# Probe 985 (-80.298 0 0)
# Probe 986 (-80.278 0 0)
# Probe 987 (-80.258 0 0)
# Probe 988 (-80.238 0 0)
# Probe 989 (-80.218 0 0)
# Probe 990 (-80.198 0 0)
# Probe 991 (-80.178 0 0)
# Probe 992 (-80.158 0 0)
# Probe 993 (-80.138 0 0)
# Probe 994 (-80.118 0 0)
# Probe 995 (-80.098 0 0)
# Probe 996 (-80.078 0 0)
# Probe 997 (-80.058 0 0)
# Probe 998 (-80.038 0 0)
# Probe 999 (-80.018 0 0)
# Probe 1000 (-79.998 0 0)
# Probe 1001 (-79.978 0 0)
# Probe 1002 (-79.958 0 0)
# Probe 1003 (-79.938 0 0)
# Probe 1004 (-79.918 0 0)
# Probe 1005 (-79.898 0 0)
# Probe 1006 (-79.878 0 0)
# Probe 1007 (-79.858 0 0)
# Probe 1008 (-79.838 0 0)
# Probe 1009 (-79.818 0 0)
# Probe 1010 (-79.798 0 0)
# Probe 1011 (-79.778 0 0)
# Probe 1012 (-79.758 0 0)
# Probe 1013 (-79.738 0 0)
# Probe 1014 (-79.718 0 0)
# Probe 1015 (-79.698 0 0)
# Probe 1016 (-79.678 0 0)
# Probe 1017 (-79.658 0 0)
# Probe 1018 (-79.638 0 0)
# Probe 1019 (-79.618 0 0)
# Probe 1020 (-79.598 0 0)
# Probe 1021 (-79.578 0 0)
# Probe 1022 (-79.558 0 0)
# Probe 1023 (-79.538 0 0)
# Probe 1024 (-79.518 0 0)
# Probe 1025 (-79.498 0 0)
# Probe 1026 (-79.478 0 0)
# Probe 1027 (-79.458 0 0)
# Probe 1028 (-79.438 0 0)
# Probe 1029 (-79.418 0 0)
# Probe 1030 (-79.398 0 0)
# Probe 1031 (-79.378 0 0)
# Probe 1032 (-79.358 0 0)
# Probe 1033 (-79.338 0 0)
# Probe 1034 (-79.318 0 0)
# Probe 1035 (-79.298 0 0)
# Probe 1036 (-79.278 0 0)
# Probe 1037 (-79.258 0 0)
# Probe 1038 (-79.238 0 0)
# Probe 1039 (-79.218 0 0)
# Probe 1040 (-79.198 0 0)
# Probe 1041 (-79.178 0 0)
# Probe 1042 (-79.158 0 0)
# Probe 1043 (-79.138 0 0)
# Probe 1044 (-79.118 0 0)
# Probe 1045 (-79.098 0 0)
# Probe 1046 (-79.078 0 0)
# Probe 1047 (-79.058 0 0)
# Probe 1048 (-79.038 0 0)
# Probe 1049 (-79.018 0 0)
# Probe 1050 (-78.998 0 0)
# Probe 1051 (-78.978 0 0)
# Probe 1052 (-78.958 0 0)
# Probe 1053 (-78.938 0 0)
# Probe 1054 (-78.918 0 0)
# Probe 1055 (-78.898 0 0)
# Probe 1056 (-78.878 0 0)
# Probe 1057 (-78.858 0 0)
# Probe 1058 (-78.838 0 0)
# Probe 1059 (-78.818 0 0)
# Probe 1060 (-78.798 0 0)
# Probe 1061 (-78.778 0 0)
# Probe 1062 (-78.758 0 0)
# Probe 1063 (-78.738 0 0)
# Probe 1064 (-78.718 0 0)
# Probe 1065 (-78.698 0 0)
# Probe 1066 (-78.678 0 0)
# Probe 1067 (-78.658 0 0)
# Probe 1068 (-78.638 0 0)
# Probe 1069 (-78.618 0 0)
# Probe 1070 (-78.598 0 0)
# Probe 1071 (-78.578 0 0)
# Probe 1072 (-78.558 0 0)
# Probe 1073 (-78.538 0 0)
# Probe 1074 (-78.518 0 0)
# Probe 1075 (-78.498 0 0)
# Probe 1076 (-78.478 0 0)
# Probe 1077 (-78.458 0 0)
# Probe 1078 (-78.438 0 0)
# Probe 1079 (-78.418 0 0)
# Probe 1080 (-78.398 0 0)
# Probe 1081 (-78.378 0 0)
# Probe 1082 (-78.358 0 0)
# Probe 1083 (-78.338 0 0)
# Probe 1084 (-78.318 0 0)
# Probe 1085 (-78.298 0 0)
# Probe 1086 (-78.278 0 0)
# Probe 1087 (-78.258 0 0)
# Probe 1088 (-78.238 0 0)
# Probe 1089 (-78.218 0 0)
# Probe 1090 (-78.198 0 0)
# Probe 1091 (-78.178 0 0)
# Probe 1092 (-78.158 0 0)
# Probe 1093 (-78.138 0 0)
# Probe 1094 (-78.118 0 0)
# Probe 1095 (-78.098 0 0)
# Probe 1096 (-78.078 0 0)
# Probe 1097 (-78.058 0 0)
# Probe 1098 (-78.038 0 0)
# Probe 1099 (-78.018 0 0)
# Probe 1100 (-77.998 0 0)
# Probe 1101 (-77.978 0 0)
# Probe 1102 (-77.958 0 0)
# Probe 1103 (-77.938 0 0)
# Probe 1104 (-77.918 0 0)
# Probe 1105 (-77.898 0 0)
# Probe 1106 (-77.878 0 0)
# Probe 1107 (-77.858 0 0)
# Probe 1108 (-77.838 0 0)
# Probe 1109 (-77.818 0 0)
# Probe 1110 (-77.798 0 0)
# Probe 1111 (-77.778 0 0)
# Probe 1112 (-77.758 0 0)
# Probe 1113 (-77.738 0 0)
# Probe 1114 (-77.718 0 0)
# Probe 1115 (-77.698 0 0)
# Probe 1116 (-77.678 0 0)
# Probe 1117 (-77.658 0 0)
# Probe 1118 (-77.638 0 0)
# Probe 1119 (-77.618 0 0)
# Probe 1120 (-77.598 0 0)
# Probe 1121 (-77.578 0 0)
# Probe 1122 (-77.558 0 0)
# Probe 1123 (-77.538 0 0)
# Probe 1124 (-77.518 0 0)
# Probe 1125 (-77.498 0 0)
# Probe 1126 (-77.478 0 0)
# Probe 1127 (-77.458 0 0)
# Probe 1128 (-77.438 0 0)
# Probe 1129 (-77.418 0 0)
# Probe 1130 (-77.398 0 0)
# Probe 1131 (-77.378 0 0)
# Probe 1132 (-77.358 0 0)
# Probe 1133 (-77.338 0 0)
# Probe 1134 (-77.318 0 0)
# Probe 1135 (-77.298 0 0)
# Probe 1136 (-77.278 0 0)
# Probe 1137 (-77.258 0 0)
# Probe 1138 (-77.238 0 0)
# Probe 1139 (-77.218 0 0)
# Probe 1140 (-77.198 0 0)
# Probe 1141 (-77.178 0 0)
# Probe 1142 (-77.158 0 0)
# Probe 1143 (-77.138 0 0)
# Probe 1144 (-77.118 0 0)
# Probe 1145 (-77.098 0 0)
# Probe 1146 (-77.078 0 0)
# Probe 1147 (-77.058 0 0)
# Probe 1148 (-77.038 0 0)
# Probe 1149 (-77.018 0 0)
# Probe 1150 (-76.998 0 0)
# Probe 1151 (-76.978 0 0)
# Probe 1152 (-76.958 0 0)
# Probe 1153 (-76.938 0 0)
# Probe 1154 (-76.918 0 0)
# Probe 1155 (-76.898 0 0)
# Probe 1156 (-76.878 0 0)
# Probe 1157 (-76.858 0 0)
# Probe 1158 (-76.838 0 0)
# Probe 1159 (-76.818 0 0)
# Probe 1160 (-76.798 0 0)
# Probe 1161 (-76.778 0 0)
# Probe 1162 (-76.758 0 0)