# Probe 0 (-126 0 0)
# Probe 1 (-105 0 0)
# Probe 2 (-84 0 0)
# Probe 3 (-63 0 0)
# Probe 4 (-42 0 0)
# Probe 5 (-21 0 0)
# Probe 6 (0 0 0)
# Probe 7 (21 0 0)
# Probe 8 (42 0 0)
# Probe 9 (63 0 0)
# Probe 10 (84 0 0)
# Probe 11 (105 0 0)
# Probe 12 (126 0 0)
#           Probe                 0                 1                 2                 3                 4                 5                 6                 7                 8                 9                10                11                12
#            Time
           0.1025            101325            101325            101325            101325            101325            101325        101298.944            101325            101325            101325            101325            101325            101325
            0.105            101325            101325            101325            101325            101325            101325       101229.2371            101325            101325            101325            101325            101325            101325
           0.1075            101325            101325            101325            101325            101325            101325       101129.2158            101325            101325            101325            101325            101325            101325
             0.11            101325            101325            101325            101325            101325            101325       101011.8229            101325            101325            101325            101325            101325            101325
           0.1125            101325            101325            101325            101325            101325            101325       100888.7884            101325            101325            101325            101325            101325            101325
            0.115            101325            101325            101325            101325            101325            101325       100770.4405            101325            101325            101325            101325            101325            101325
           0.1175            101325            101325            101325            101325            101325            101325       100665.1681       101324.9998            101325            101325            101325            101325            101325
             0.12            101325            101325            101325            101325            101325            101325       100579.1644       101324.9985            101325            101325            101325            101325            101325
           0.1225            101325            101325            101325            101325            101325       101324.9999       100516.6562       101324.9909            101325            101325            101325            101325            101325
            0.125            101325            101325            101325            101325            101325       101324.9998       100480.3816       101324.9568            101325            101325            101325            101325            101325
           0.1275            101325            101325            101325            101325            101325        101324.999       100471.6588       101324.8394            101325            101325            101325            101325            101325
             0.13            101325            101325            101325            101325            101325       101324.9966       100490.3207       101324.5098            101325            101325            101325            101325            101325
           0.1325            101325            101325            101325            101325            101325       101324.9893       100534.1972       101323.7188            101325            101325            101325            101325            101325
            0.135            101325            101325            101325            101325            101325       101324.9693       100602.1298       101322.0482            101325            101325            101325            101325            101325
           0.1375            101325            101325            101325            101325            101325        101324.919       100691.5609       101318.9075            101325            101325            101325            101325            101325
             0.14            101325            101325            101325            101325            101325       101324.8028       100797.2192        101313.598            101325            101325            101325            101325            101325
           0.1425            101325            101325            101325            101325            101325       101324.5537       100918.3712       101305.4911            101325            101325            101325            101325            101325
            0.145            101325            101325            101325            101325            101325       101324.0541       101052.7409       101294.4717            101325            101325            101325            101325            101325
           0.1475            101325            101325            101325            101325            101325       101323.1121       101196.8927        101280.682            101325            101325            101325            101325            101325
             0.15            101325            101325            101325            101325            101325       101321.4604       101346.8511       101264.8278            101325            101325            101325            101325            101325
           0.1525            101325            101325            101325            101325            101325       101318.7754       101498.2578       101248.0186            101325            101325            101325            101325            101325
            0.155            101325            101325            101325            101325            101325       101314.7097        101647.996       101231.1757            101325            101325            101325            101325            101325
           0.1575            101325            101325            101325            101325            101325       101308.9548       101798.1692       101216.3677            101325            101325            101325            101325            101325
             0.16            101325            101325            101325            101325            101325       101301.2461       101951.4692       101204.6047            101325            101325            101325            101325            101325
           0.1625            101325            101325            101325            101325            101325       101291.3448       102110.1467       101195.9555            101325            101325            101325            101325            101325
            0.165            101325            101325            101325            101325            101325       101279.0233       102235.3561       101190.6052            101325            101325            101325            101325            101325
           0.1675            101325            101325            101325            101325            101325       101264.6127       102319.7891       101188.8971       101324.9998            101325            101325            101325            101325
             0.17            101325            101325            101325            101325            101325       101248.7654       102381.7192       101190.7366       101324.9987            101325            101325            101325            101325
           0.1725            101325            101325            101325            101325            101325       101232.2314        102415.383       101196.7854        101324.993            101325            101325            101325            101325
            0.175            101325            101325            101325            101325            101325       101216.2989       102425.0619       101203.9574       101324.9694            101325            101325            101325            101325
           0.1775            101325            101325            101325            101325            101325       101202.5226       102403.2024       101212.0281       101324.8858            101325            101325            101325            101325
             0.18            101325            101325            101325            101325            101325       101191.8308       102348.4182       101222.2099       101324.6343            101325            101325            101325            101325
           0.1825            101325            101325            101325            101325            101325       101183.9082       102257.0054       101237.8434       101323.9887            101325            101325            101325            101325
            0.185            101325            101325            101325            101325            101325       101179.2916       102142.0547        101261.393       101322.5651            101325            101325            101325            101325
           0.1875            101325            101325            101325            101325            101325       101177.4894       102013.7708       101292.4008        101319.846            101325            101325            101325            101325
             0.19            101325            101325            101325            101325            101325       101177.9589       101876.6618       101328.6722       101315.3142            101325            101325            101325            101325
           0.1925            101325            101325            101325            101325            101325       101181.0485       101737.2835       101368.3648       101308.6537            101325            101325            101325            101325
            0.195            101325            101325            101325            101325       101324.9999       101186.3209       101598.9182       101408.9365       101299.9595            101325            101325            101325            101325
           0.1975            101325            101325            101325            101325       101324.9997       101192.0511       101456.7223        101447.967       101289.8372            101325            101325            101325            101325
              0.2            101325            101325            101325            101325        101324.999       101198.9472        101310.969       101482.4103       101279.0852            101325            101325            101325            101325
           0.2025            101325            101325            101325            101325       101324.9961        101207.358       101164.6076       101509.4322       101268.6612            101325            101325            101325            101325
            0.205            101325            101325            101325            101325        101324.987       101217.9336       101020.0313       101527.2537       101259.3748            101325            101325            101325            101325
           0.2075            101325            101325            101325            101325       101324.9605       101233.7235       100876.3845       101537.0607       101251.7498            101325            101325            101325            101325
             0.21            101325            101325            101325            101325       101324.8915       101255.9067       100729.0865       101540.1454       101246.2144            101325            101325            101325            101325
           0.2125            101325            101325            101325            101325       101324.7294       101283.9765       100587.8585       101537.6941       101242.6228            101325            101325            101325            101325
            0.215            101325            101325            101325            101325       101324.3843       101317.8118        100477.994         101531.09       101240.8356       101324.9999            101325            101325            101325
           0.2175            101325            101325            101325            101325       101323.7161        101355.396       100395.0886       101521.0816       101240.5366       101324.9993            101325            101325            101325
             0.22            101325            101325            101325            101325       101322.5355       101393.5209       100337.2336       101510.1388       101241.4254       101324.9961            101325            101325            101325
           0.2225            101325            101325            101325            101325       101320.6214       101430.1304       100300.0844       101499.2001       101243.5127       101324.9812            101325            101325            101325
            0.225            101325            101325            101325            101325       101317.7647       101462.5885        100283.086       101486.6432       101245.9636        101324.925            101325            101325            101325
           0.2275            101325            101325            101325            101325       101313.8081       101488.9432       100303.6326       101470.1759       101249.1448       101324.7498            101325            101325            101325
             0.23            101325            101325            101325            101325        101308.708       101508.8918       100356.5938       101449.6221       101253.9082       101324.2936            101325            101325            101325
           0.2325            101325            101325            101325            101325       101302.5494       101523.0414       100434.6034       101425.2823       101262.4425       101323.2881            101325            101325            101325
            0.235            101325            101325            101325            101325       101295.5552       101531.4077        100532.114       101397.9658       101275.9421       101321.3876            101325            101325            101325
           0.2375            101325            101325            101325            101325       101288.0497       101535.1376       100643.3203       101368.1869       101294.4603       101318.2635            101325            101325            101325
             0.24            101325            101325            101325            101325       101280.4545       101535.2215       100762.6952       101335.6752       101317.0153       101313.7391            101325            101325            101325
           0.2425            101325            101325            101325            101325       101273.1441        101531.932       100890.9027       101300.4919       101342.1258       101307.9057            101325            101325            101325
            0.245            101325            101325            101325            101325       101266.4994        101525.212       101029.3283       101264.6276       101367.6788       101301.1174            101325            101325            101325
           0.2475            101325            101325            101325            101325       101260.7558       101517.9219       101176.0639       101230.5436       101391.6543       101293.8843            101325            101325            101325
             0.25            101325            101325            101325            101325       101256.1571       101509.3366       101327.8308        101200.195       101412.2167       101286.7482            101325            101325            101325
           0.2525            101325            101325            101325            101325       101252.6657       101498.7091       101480.3359       101175.6781       101428.3422       101280.2167            101325            101325            101325
            0.255            101325            101325            101325            101325       101250.3094       101486.1168       101628.6206        101157.704        101440.055        101274.638            101325            101325            101325
           0.2575            101325            101325            101325            101325       101248.9543       101469.7584       101776.0765       101145.5443        101447.765       101270.2237            101325            101325            101325
             0.26            101325            101325            101325            101325       101248.4775       101446.2164       101925.5942        101138.614       101452.3431       101267.0688            101325            101325            101325
           0.2625            101325            101325            101325            101325       101248.7578       101416.2622       102073.9864       101135.5593        101454.187       101265.0399       101324.9999            101325            101325
            0.265            101325            101325            101325       101324.9998       101249.9761       101380.8922       102192.7216       101136.4749       101454.1138       101264.0634       101324.9994            101325            101325
           0.2675            101325            101325            101325       101324.9993       101251.4354       101340.9831        102281.772       101140.0443       101452.3623       101263.8929       101324.9968            101325            101325
             0.27            101325            101325            101325       101324.9976       101253.3129       101299.8991       102344.7892       101144.1472       101449.3078       101264.4405       101324.9851            101325            101325
           0.2725            101325            101325            101325       101324.9921       101255.9615       101260.6417       102379.6376        101150.056       101445.8913       101265.4969       101324.9424            101325            101325
            0.275            101325            101325            101325        101324.977       101259.5708       101225.2052       102389.6509       101159.7476       101441.7529       101266.8271       101324.8133            101325            101325
           0.2775            101325            101325            101325        101324.939       101265.0337       101195.8667       102368.2482       101174.6929       101436.0915       101268.7887        101324.485            101325            101325
             0.28            101325            101325            101325       101324.8525       101273.4961       101173.5266       102310.3757       101195.2315       101426.7455       101272.1963        101323.774            101325            101325
           0.2825            101325            101325            101325       101324.6728        101284.895       101156.9939       102222.8756       101221.2676       101412.6614       101278.5304       101322.4442            101325            101325
            0.285            101325            101325            101325       101324.3309       101298.9054       101146.4222       102117.4327       101252.3091       101393.7717        101288.462       101320.2685            101325            101325
           0.2875            101325            101325            101325       101323.7328       101315.0953       101140.7464       101998.9772       101287.7747       101371.2638       101301.8874       101317.1111            101325            101325
             0.29            101325            101325            101325       101322.7667       101332.2667       101139.0852       101871.5577       101326.4187       101346.6419       101317.9238       101313.0074            101325            101325
           0.2925            101325            101325            101325       101321.3187       101349.4764       101140.7848       101742.4862       101366.9564       101321.0259       101335.4241       101308.1603            101325            101325
            0.295            101325            101325            101325       101319.2937       101365.8993       101146.3825       101608.0701       101406.5888       101295.8711       101352.9577       101302.8891            101325            101325
           0.2975            101325            101325            101325       101316.6406       101380.6174       101152.9666       101466.4803       101442.9465       101272.7067       101369.2815       101297.5626            101325            101325
              0.3            101325            101325            101325       101313.3679       101393.2528        101160.513       101319.4883       101473.9835       101252.5037          101383.4       101292.5284            101325            101325
           0.3025            101325            101325            101325       101309.5534       101403.6461       101169.9958       101170.5776       101497.6531       101235.8428        101394.757       101288.0697            101325            101325
            0.305            101325            101325            101325       101305.3372        101411.556       101181.5373       101024.2936       101512.4447       101222.9342       101403.4366       101284.3566            101325            101325
           0.3075            101325            101325            101325       101300.9015       101417.1838        101195.919       100878.6013       101520.3833       101213.6724       101409.6316       101281.4968            101325            101325
             0.31            101325            101325            101325       101296.4401       101420.7814       101217.1691         100728.58       101523.2405       101207.2485       101413.6518       101279.4902       101324.9999            101325
           0.3125            101325            101325            101325       101292.1544       101422.7229        101245.412         100584.25       101522.4352        101203.547       101415.9629       101278.2351       101324.9996            101325
            0.315            101325            101325            101325       101288.2238       101423.2187       101279.6158       100472.8219       101518.4881       101202.3311       101416.8258       101277.6643       101324.9978            101325
           0.3175            101325            101325            101325       101284.7885       101422.3745       101318.9199       100386.4479        101511.853       101203.0651       101416.6868       101277.5999         101324.99            101325
             0.32            101325            101325            101325       101281.9047       101420.7256       101360.3323       100325.6344       101502.3979       101205.7826       101415.5734       101278.0234       101324.9615            101325
           0.3225            101325            101325            101325       101279.6508       101418.7059       101399.9854       100288.8909       101492.1233       101209.1203       101414.0358       101278.6626       101324.8753            101325
            0.325            101325            101325            101325       101277.9813       101415.8878       101435.6683       100271.9911       101481.1475       101213.3694       101412.0486         101279.55       101324.6546            101325
           0.3275            101325            101325            101325       101276.8861       101411.8131       101464.9246        100288.689       101468.7777       101219.1871       101409.1883       101280.9616       101324.1717            101325
             0.33            101325            101325            101325        101276.265       101406.3847       101486.9542       100342.7854       101452.9903       101228.6447       101404.3337       101283.6627       101323.2568            101325
           0.3325            101325            101325       101324.9999       101276.0712       101398.1585       101503.1166       100423.7695       101432.4298       101243.2099       101395.9801       101288.5799       101321.7365            101325
            0.335            101325            101325       101324.9997       101276.2797       101386.5354       101513.2993       100525.4317       101406.1591       101262.8033       101383.6724       101296.1361       101319.4908            101325
           0.3375            101325            101325       101324.9991       101276.8419       101372.0552       101518.5298        100641.033       101374.8828       101286.2857       101367.7539       101306.1899       101316.5106            101325
             0.34            101325            101325       101324.9969       101277.5057       101355.3763       101519.7275       100765.0979        101339.988       101312.0116       101349.4948       101318.0941       101312.9113            101325
           0.3425            101325            101325       101324.9909       101278.4193       101337.2202       101517.5405       100894.6626       101302.4075       101338.7162       101330.0373       101331.0389       101308.9014            101325
            0.345            101325            101325       101324.9755       101279.7718       101319.2624       101511.4064       101032.7914       101263.8593        101364.676       101310.7308       101344.0507       101304.7426            101325
           0.3475            101325            101325       101324.9396       101281.6697       101302.5128       101504.4709       101178.6227       101227.1707       101388.3211       101292.7819       101356.2646       101300.6964            101325
             0.35            101325            101325       101324.8629       101284.7421       101287.6806       101496.4587       101329.3302       101194.7209       101408.7667        101277.113       101367.0067        101296.988            101325
           0.3525            101325            101325       101324.7128       101289.4145       101275.2366       101486.4392       101480.8746       101168.7657       101425.1613       101264.3288       101375.8861       101293.7809            101325
            0.355            101325            101325       101324.4416       101295.6981       101265.2788       101474.4389       101628.2677       101149.9437       101437.4645       101254.5356       101382.8857       101291.1659            101325
           0.3575            101325            101325        101323.988       101303.4638       101257.7719       101459.4596       101774.5344       101136.9606       101446.2501       101247.5102       101388.0871       101289.1904            101325
             0.36            101325            101325       101323.2828         101312.42       101252.6413       101437.5399        101923.959       101129.2415       101451.6573       101242.8796       101391.6885       101287.8238            101325
           0.3625            101325            101325       101322.2583       101321.9858       101249.4529       101408.9605       102069.3428       101126.8471       101453.8693       101240.1428        101393.948       101286.9941       101324.9994
            0.365            101325            101325        101320.861        101331.732       101247.9487        101374.758       102184.9344       101129.0577       101453.3257       101239.0137        101395.061         101286.63        101324.996
           0.3675            101325            101325       101319.0649        101341.232       101247.9395       101335.6937       102274.0401       101135.1844       101450.5027       101239.0059       101395.3402       101286.6139       101324.9812
             0.37            101325            101325       101316.8807       101350.0403       101249.2089       101294.8468       102336.5137       101144.0949       101446.9794       101240.0406       101394.9151       101286.9303        101324.931
           0.3725            101325            101325        101314.356        101357.804       101250.8103       101255.7985       102371.5914       101153.4552       101442.9963       101241.5529        101394.052       101287.3622       101324.7923
            0.375            101325            101325       101311.5728       101364.3693       101253.0226       101220.6209       102382.6337        101163.445       101438.0541       101243.5369       101392.9322       101288.0054       101324.4712
           0.3775            101325            101325       101308.6391       101369.6988        101256.313       101191.5757       102362.2203       101175.1362       101431.3528        101246.457       101391.1798       101289.0845       101323.8362
             0.38            101325            101325        101305.673       101373.7487       101261.0306       101169.5099       102304.8118       101191.3274       101420.8114       101251.4803       101388.1657       101291.2591       101322.7439
           0.3825            101325            101325       101302.7845       101376.5955        101267.597       101153.1758       102219.3698       101213.3801       101405.8198       101260.2154       101382.5988       101295.1546       101321.0845
            0.385            101325            101325       101300.0792       101378.4521       101277.4874       101142.6904         102115.85       101242.0784       101386.4778       101273.1089       101373.9884       101301.0863       101318.8258
           0.3875            101325            101325       101297.6493       101379.4961        101290.347       101137.0734       101999.0213       101276.8957       101364.0393       101289.7135       101362.3976       101308.9276       101316.0375
             0.39            101325            101325       101295.5573       101379.7931        101305.632       101135.4821       101873.7381       101315.7323       101339.7761       101308.6409       101348.7381       101318.1947        101312.866