# Probe 0 (-126 0 0)
# Probe 1 (-105 0 0)
# Probe 2 (-84 0 0)
# Probe 3 (-63 0 0)
# Probe 4 (-42 0 0)
# Probe 5 (-21 0 0)
# Probe 6 (0 0 0)
# Probe 7 (21 0 0)
# Probe 8 (42 0 0)
# Probe 9 (63 0 0)
# Probe 10 (84 0 0)
# Probe 11 (105 0 0)
# Probe 12 (126 0 0)
#           Probe                 0                 1                 2                 3                 4                 5                 6                 7                 8                 9                10                11                12
#            Time
           0.0025            101325            101325            101325            101325            101325            101325            101325            101325            101325            101325            101325            101325            101325
            0.005            101325            101325            101325            101325            101325            101325            101325            101325            101325            101325            101325            101325            101325
           0.0075            101325            101325            101325            101325            101325            101325            101325            101325            101325            101325            101325            101325            101325
             0.01            101325            101325            101325            101325            101325            101325            101325            101325            101325            101325            101325            101325            101325
           0.0125            101325            101325            101325            101325            101325            101325            101325            101325            101325            101325            101325            101325            101325
            0.015            101325            101325            101325            101325            101325            101325            101325            101325            101325            101325            101325            101325            101325
           0.0175            101325            101325            101325            101325            101325            101325            101325            101325            101325            101325            101325            101325            101325
             0.02            101325            101325            101325            101325            101325            101325            101325            101325            101325            101325            101325            101325            101325
           0.0225            101325            101325            101325            101325            101325            101325            101325            101325            101325            101325            101325            101325            101325
            0.025            101325            101325            101325            101325            101325            101325            101325            101325            101325            101325            101325            101325            101325
           0.0275            101325            101325            101325            101325            101325            101325            101325            101325            101325            101325            101325            101325            101325
             0.03            101325            101325            101325            101325            101325            101325            101325            101325            101325            101325            101325            101325            101325
           0.0325            101325            101325            101325            101325            101325            101325            101325            101325            101325            101325            101325            101325            101325
            0.035            101325            101325            101325            101325            101325            101325            101325            101325            101325            101325            101325            101325            101325
           0.0375            101325            101325            101325            101325            101325            101325            101325            101325            101325            101325            101325            101325            101325
             0.04            101325            101325            101325            101325            101325            101325            101325            101325            101325            101325            101325            101325            101325
           0.0425            101325            101325            101325            101325            101325            101325            101325            101325            101325            101325            101325            101325            101325
            0.045            101325            101325            101325            101325            101325            101325            101325            101325            101325            101325            101325            101325            101325
           0.0475            101325            101325            101325            101325            101325            101325            101325            101325            101325            101325            101325            101325            101325
             0.05            101325            101325            101325            101325            101325            101325            101325            101325            101325            101325            101325            101325            101325
           0.0525            101325            101325            101325            101325            101325            101325            101325            101325            101325            101325            101325            101325            101325
            0.055            101325            101325            101325            101325            101325            101325            101325            101325            101325            101325            101325            101325            101325
           0.0575            101325            101325            101325            101325            101325            101325            101325            101325            101325            101325            101325            101325            101325
             0.06            101325            101325            101325            101325            101325            101325            101325            101325            101325            101325            101325            101325            101325
           0.0625            101325            101325            101325            101325            101325            101325            101325            101325            101325            101325            101325            101325            101325
            0.065            101325            101325            101325            101325            101325            101325            101325            101325            101325            101325            101325            101325            101325
           0.0675            101325            101325            101325            101325            101325            101325            101325            101325            101325            101325            101325            101325            101325
             0.07            101325            101325            101325            101325            101325            101325            101325            101325            101325            101325            101325            101325            101325
           0.0725            101325            101325            101325            101325            101325            101325            101325            101325            101325            101325            101325            101325            101325
            0.075            101325            101325            101325            101325            101325            101325            101325            101325            101325            101325            101325            101325            101325
           0.0775            101325            101325            101325            101325            101325            101325            101325            101325            101325            101325            101325            101325            101325
             0.08            101325            101325            101325            101325            101325            101325            101325            101325            101325            101325            101325            101325            101325
           0.0825            101325            101325            101325            101325            101325            101325            101325            101325            101325            101325            101325            101325            101325
            0.085            101325            101325            101325            101325            101325            101325            101325            101325            101325            101325            101325            101325            101325
           0.0875            101325            101325            101325            101325            101325            101325            101325            101325            101325            101325            101325            101325            101325
             0.09            101325            101325            101325            101325            101325            101325            101325            101325            101325            101325            101325            101325            101325
           0.0925            101325            101325            101325            101325            101325            101325            101325            101325            101325            101325            101325            101325            101325
            0.095            101325            101325            101325            101325            101325            101325            101325            101325            101325            101325            101325            101325            101325
           0.0975            101325            101325            101325            101325            101325            101325            101325            101325            101325            101325            101325            101325            101325
              0.1            101325            101325            101325            101325            101325            101325            101325            101325            101325            101325            101325            101325            101325
           0.1025            101325            101325            101325            101325            101325            101325       101297.6894            101325            101325            101325            101325            101325            101325
            0.105            101325            101325            101325            101325            101325            101325       101222.3279            101325            101325            101325            101325            101325            101325
           0.1075            101325            101325            101325            101325            101325            101325       101116.0493            101325            101325            101325            101325            101325            101325
             0.11            101325            101325            101325            101325            101325            101325       100999.8022            101325            101325            101325            101325            101325            101325
           0.1125            101325            101325            101325            101325            101325            101325       100891.7471            101325            101325            101325            101325            101325            101325
            0.115            101325            101325            101325            101325            101325            101325       100804.0074            101325            101325            101325            101325            101325            101325
           0.1175            101325            101325            101325            101325            101325            101325       100743.0248            101325            101325            101325            101325            101325            101325
             0.12            101325            101325            101325            101325            101325            101325        100710.479            101325            101325            101325            101325            101325            101325
           0.1225            101325            101325            101325            101325            101325            101325       100705.3585            101325            101325            101325            101325            101325            101325
            0.125            101325            101325            101325            101325            101325            101325       100725.5666       101324.9997            101325            101325            101325            101325            101325
           0.1275            101325            101325            101325            101325            101325            101325       100768.6959       101324.9977            101325            101325            101325            101325            101325
             0.13            101325            101325            101325            101325            101325            101325       100832.1121       101324.9862            101325            101325            101325            101325            101325
           0.1325            101325            101325            101325            101325            101325       101324.9999       100912.9105       101324.9304            101325            101325            101325            101325            101325
            0.135            101325            101325            101325            101325            101325       101324.9998        101008.148       101324.7017            101325            101325            101325            101325            101325
           0.1375            101325            101325            101325            101325            101325       101324.9992       101112.3429       101323.9152            101325            101325            101325            101325            101325
             0.14            101325            101325            101325            101325            101325       101324.9971       101225.1675       101321.6591            101325            101325            101325            101325            101325
           0.1425            101325            101325            101325            101325            101325       101324.9903       101344.0144       101316.2907            101325            101325            101325            101325            101325
            0.145            101325            101325            101325            101325            101325       101324.9693       101469.0749       101305.6874            101325            101325            101325            101325            101325
           0.1475            101325            101325            101325            101325            101325       101324.9095       101589.0567       101288.1579            101325            101325            101325            101325            101325
             0.15            101325            101325            101325            101325            101325       101324.7518        101697.688       101263.6279            101325            101325            101325            101325            101325
           0.1525            101325            101325            101325            101325            101325       101324.3673        101805.372       101234.2237            101325            101325            101325            101325            101325
            0.155            101325            101325            101325            101325            101325        101323.502       101901.9393       101203.6954            101325            101325            101325            101325            101325
           0.1575            101325            101325            101325            101325            101325       101321.7072       101986.8355       101176.1034            101325            101325            101325            101325            101325
             0.16            101325            101325            101325            101325            101325       101318.2836       102046.0698       101154.6214            101325            101325            101325            101325            101325
           0.1625            101325            101325            101325            101325            101325       101312.2871       102096.8851       101141.0206            101325            101325            101325            101325            101325
            0.165            101325            101325            101325            101325            101325       101302.6361       102127.5903       101136.0274            101325            101325            101325            101325            101325
           0.1675            101325            101325            101325            101325            101325       101288.3379        102138.616       101139.1716            101325            101325            101325            101325            101325
             0.17            101325            101325            101325            101325            101325       101268.7959       102130.4697       101148.9048            101325            101325            101325            101325            101325
           0.1725            101325            101325            101325            101325            101325       101244.0987       102103.9348       101163.5028            101325            101325            101325            101325            101325
            0.175            101325            101325            101325            101325            101325       101215.1757       102058.8098       101185.6899            101325            101325            101325            101325            101325
           0.1775            101325            101325            101325            101325            101325       101183.7502       101999.6103       101213.3337            101325            101325            101325            101325            101325
             0.18            101325            101325            101325            101325            101325       101152.0008       101920.6503       101243.9708       101324.9999            101325            101325            101325            101325
           0.1825            101325            101325            101325            101325            101325       101122.1441       101829.0771       101277.0322       101324.9973            101325            101325            101325            101325
            0.185            101325            101325            101325            101325            101325       101096.7459       101719.6899       101312.3435       101324.9672            101325            101325            101325            101325
           0.1875            101325            101325            101325            101325            101325       101079.3042       101610.3594       101349.0886       101324.7625            101325            101325            101325            101325
             0.19            101325            101325            101325            101325            101325       101072.2779       101499.4387       101386.0224       101323.8507            101325            101325            101325            101325
           0.1925            101325            101325            101325            101325            101325       101073.6361       101377.0727       101421.7847       101321.0248            101325            101325            101325            101325
            0.195            101325            101325            101325            101325            101325       101080.6677       101250.6014       101454.9106       101314.5349            101325            101325            101325            101325
           0.1975            101325            101325            101325            101325            101325       101093.6093       101131.6833       101484.0368       101302.8709            101325            101325            101325            101325
              0.2            101325            101325            101325            101325            101325       101118.1678       101017.6074       101510.9705       101285.7642            101325            101325            101325            101325
           0.2025            101325            101325            101325            101325            101325       101152.5312       100903.1609       101535.0009       101264.6517            101325            101325            101325            101325
            0.205            101325            101325            101325            101325            101325       101193.2029       100800.6119       101553.3888       101242.2712            101325            101325            101325            101325
           0.2075            101325            101325            101325            101325            101325       101238.3236       100719.9634       101566.1147       101221.4007            101325            101325            101325            101325
             0.21            101325            101325            101325            101325            101325       101286.6742       100653.2698       101573.6196       101204.0382            101325            101325            101325            101325
           0.2125            101325            101325            101325            101325            101325       101337.1076       100597.8264       101575.0465       101192.6899            101325            101325            101325            101325
            0.215            101325            101325            101325            101325            101325       101388.4193       100562.8361       101570.6205       101188.9458            101325            101325            101325            101325
           0.2175            101325            101325            101325            101325       101324.9999       101438.8486        100550.715       101560.0125       101190.2246            101325            101325            101325            101325
             0.22            101325            101325            101325            101325       101324.9994       101487.2237       100553.3646       101544.8063       101193.6021            101325            101325            101325            101325
           0.2225            101325            101325            101325            101325       101324.9957       101531.9705       100578.3455       101523.2148       101201.3433            101325            101325            101325            101325
            0.225            101325            101325            101325            101325        101324.977        101571.605       100618.4667       101497.9416       101216.4975            101325            101325            101325            101325
           0.2275            101325            101325            101325            101325        101324.902       101605.2431       100676.3105       101468.8943       101235.3027            101325            101325            101325            101325
             0.23            101325            101325            101325            101325       101324.6557       101632.5122       100754.2587        101436.227       101256.3679            101325            101325            101325            101325
           0.2325            101325            101325            101325            101325       101323.9782       101652.5833       100846.7445       101401.2498       101279.4605            101325            101325            101325            101325
            0.235            101325            101325            101325            101325        101322.395       101663.6821       100952.9579       101364.4017       101304.3413            101325            101325            101325            101325
           0.2375            101325            101325            101325            101325       101319.1952       101665.2941       101059.0955       101326.8824       101330.5355       101324.9999            101325            101325            101325
             0.24            101325            101325            101325            101325       101313.5033        101660.225       101172.3635       101288.9953       101357.3386       101324.9063            101325            101325            101325
           0.2425            101325            101325            101325            101325       101304.4851       101650.0477       101300.1166        101252.173       101383.1912       101323.4597            101325            101325            101325
            0.245            101325            101325            101325            101325       101291.6551       101633.3243        101422.585       101217.4928       101407.1511       101319.0685            101325            101325            101325
           0.2475            101325            101325            101325            101325       101275.0591        101606.885       101542.8054       101186.3986       101429.3257       101310.2922            101325            101325            101325
             0.25            101325            101325            101325            101325       101255.1129       101572.7545       101658.8263       101159.7504       101449.9629       101296.6795            101325            101325            101325
           0.2525            101325            101325            101325            101325       101232.4174       101533.1376       101775.6139       101135.3546       101468.0577       101279.5305            101325            101325            101325
            0.255            101325            101325            101325            101325       101208.1838       101489.2478       101870.9944       101115.2893       101482.6846       101260.8328            101325            101325            101325
           0.2575            101325            101325            101325            101325       101184.9813       101442.1097       101956.0541       101100.8848       101493.8914       101242.3976            101325            101325            101325
             0.26            101325            101325            101325            101325       101166.2737        101392.727       102019.1955       101091.6679       101500.8464       101226.8858            101325            101325            101325
           0.2625            101325            101325            101325            101325       101154.3782       101341.9966       102072.8692       101088.6861       101502.2654       101217.3309            101325            101325            101325
            0.265            101325            101325            101325            101325        101149.052       101290.9112       102104.5311       101091.7554       101499.7717       101213.8948            101325            101325            101325
           0.2675            101325            101325            101325            101325        101148.208       101240.8248       102115.7491       101100.7796       101495.4476       101213.9604            101325            101325            101325
             0.27            101325            101325            101325            101325        101149.715       101193.0697        102111.499       101115.2121       101486.7764       101215.4566            101325            101325            101325
           0.2725            101325            101325            101325            101325        101153.244       101148.6018       102086.5822       101137.6792       101472.4843       101218.9381            101325            101325            101325
            0.275            101325            101325            101325            101325       101165.1086       101108.6423       102043.2757        101161.847       101455.3573       101230.5597            101325            101325            101325
           0.2775            101325            101325            101325            101325       101188.4667       101073.9865       101983.3245       101190.0919       101435.6601       101245.9591            101325            101325            101325
             0.28            101325            101325            101325            101325       101217.6024       101045.0371       101906.9563       101222.6159       101413.4037       101262.7884            101325            101325            101325
           0.2825            101325            101325            101325            101325       101249.6121       101022.4771        101815.733       101258.5134       101389.0575       101281.3081            101325            101325            101325
            0.285            101325            101325            101325            101325       101283.9252       101008.0382       101708.3662       101295.9855       101363.2576       101301.4981            101325            101325            101325
           0.2875            101325            101325            101325            101325       101320.0724       101003.1178       101600.3813       101333.5838       101336.6404       101323.0641            101325            101325            101325
             0.29            101325            101325            101325            101325       101357.2165       101005.8432       101491.8495       101371.5484       101309.6361       101345.1557            101325            101325            101325