# Probe 0 (-126 0 0)
# Probe 1 (-105 0 0)
# Probe 2 (-84 0 0)
# Probe 3 (-63 0 0)
# Probe 4 (-42 0 0)
# Probe 5 (-21 0 0)
# Probe 6 (0 0 0)
# Probe 7 (21 0 0)
# Probe 8 (42 0 0)
# Probe 9 (63 0 0)
# Probe 10 (84 0 0)
# Probe 11 (105 0 0)
# Probe 12 (126 0 0)
#           Probe                 0                 1                 2                 3                 4                 5                 6                 7                 8                 9                10                11                12
#            Time
           0.0025            101325            101325            101325            101325            101325            101325            101325            101325            101325            101325            101325            101325            101325
            0.005            101325            101325            101325            101325            101325            101325            101325            101325            101325            101325            101325            101325            101325
           0.0075            101325            101325            101325            101325            101325            101325            101325            101325            101325            101325            101325            101325            101325
             0.01            101325            101325            101325            101325            101325            101325            101325            101325            101325            101325            101325            101325            101325
           0.0125            101325            101325            101325            101325            101325            101325            101325            101325            101325            101325            101325            101325            101325
            0.015            101325            101325            101325            101325            101325            101325            101325            101325            101325            101325            101325            101325            101325
           0.0175            101325            101325            101325            101325            101325            101325            101325            101325            101325            101325            101325            101325            101325
             0.02            101325            101325            101325            101325            101325            101325            101325            101325            101325            101325            101325            101325            101325
           0.0225            101325            101325            101325            101325            101325            101325            101325            101325            101325            101325            101325            101325            101325
            0.025            101325            101325            101325            101325            101325            101325            101325            101325            101325            101325            101325            101325            101325
           0.0275            101325            101325            101325            101325            101325            101325            101325            101325            101325            101325            101325            101325            101325
             0.03            101325            101325            101325            101325            101325            101325            101325            101325            101325            101325            101325            101325            101325
           0.0325            101325            101325            101325            101325            101325            101325            101325            101325            101325            101325            101325            101325            101325
            0.035            101325            101325            101325            101325            101325            101325            101325            101325            101325            101325            101325            101325            101325
           0.0375            101325            101325            101325            101325            101325            101325            101325            101325            101325            101325            101325            101325            101325
             0.04            101325            101325            101325            101325            101325            101325            101325            101325            101325            101325            101325            101325            101325
           0.0425            101325            101325            101325            101325            101325            101325            101325            101325            101325            101325            101325            101325            101325
            0.045            101325            101325            101325            101325            101325            101325            101325            101325            101325            101325            101325            101325            101325
           0.0475            101325            101325            101325            101325            101325            101325            101325            101325            101325            101325            101325            101325            101325
             0.05            101325            101325            101325            101325            101325            101325            101325            101325            101325            101325            101325            101325            101325
           0.0525            101325            101325            101325            101325            101325            101325            101325            101325            101325            101325            101325            101325            101325
            0.055            101325            101325            101325            101325            101325            101325            101325            101325            101325            101325            101325            101325            101325
           0.0575            101325            101325            101325            101325            101325            101325            101325            101325            101325            101325            101325            101325            101325
             0.06            101325            101325            101325            101325            101325            101325            101325            101325            101325            101325            101325            101325            101325
           0.0625            101325            101325            101325            101325            101325            101325            101325            101325            101325            101325            101325            101325            101325
            0.065            101325            101325            101325            101325            101325            101325            101325            101325            101325            101325            101325            101325            101325
           0.0675            101325            101325            101325            101325            101325            101325            101325            101325            101325            101325            101325            101325            101325
             0.07            101325            101325            101325            101325            101325            101325            101325            101325            101325            101325            101325            101325            101325
           0.0725            101325            101325            101325            101325            101325            101325            101325            101325            101325            101325            101325            101325            101325
            0.075            101325            101325            101325            101325            101325            101325            101325            101325            101325            101325            101325            101325            101325
           0.0775            101325            101325            101325            101325            101325            101325            101325            101325            101325            101325            101325            101325            101325
             0.08            101325            101325            101325            101325            101325            101325            101325            101325            101325            101325            101325            101325            101325
           0.0825            101325            101325            101325            101325            101325            101325            101325            101325            101325            101325            101325            101325            101325
            0.085            101325            101325            101325            101325            101325            101325            101325            101325            101325            101325            101325            101325            101325
           0.0875            101325            101325            101325            101325            101325            101325            101325            101325            101325            101325            101325            101325            101325
             0.09            101325            101325            101325            101325            101325            101325            101325            101325            101325            101325            101325            101325            101325
           0.0925            101325            101325            101325            101325            101325            101325            101325            101325            101325            101325            101325            101325            101325
            0.095            101325            101325            101325            101325            101325            101325            101325            101325            101325            101325            101325            101325            101325
           0.0975            101325            101325            101325            101325            101325            101325            101325            101325            101325            101325            101325            101325            101325
              0.1            101325            101325            101325            101325            101325            101325            101325            101325            101325            101325            101325            101325            101325
           0.1025            101325            101325            101325            101325            101325            101325       101298.2319            101325            101325            101325            101325            101325            101325
            0.105            101325            101325            101325            101325            101325            101325       101225.9069            101325            101325            101325            101325            101325            101325
           0.1075            101325            101325            101325            101325            101325            101325        101123.978            101325            101325            101325            101325            101325            101325
             0.11            101325            101325            101325            101325            101325            101325       101009.4321            101325            101325            101325            101325            101325            101325
           0.1125            101325            101325            101325            101325            101325            101325       100897.0036            101325            101325            101325            101325            101325            101325
            0.115            101325            101325            101325            101325            101325            101325       100797.8055            101325            101325            101325            101325            101325            101325
           0.1175            101325            101325            101325            101325            101325            101325        100719.195            101325            101325            101325            101325            101325            101325
             0.12            101325            101325            101325            101325            101325            101325       100665.2964            101325            101325            101325            101325            101325            101325
           0.1225            101325            101325            101325            101325            101325            101325       100637.5763            101325            101325            101325            101325            101325            101325
            0.125            101325            101325            101325            101325            101325            101325       100634.9272            101325            101325            101325            101325            101325            101325
           0.1275            101325            101325            101325            101325            101325            101325       100656.9896            101325            101325            101325            101325            101325            101325
             0.13            101325            101325            101325            101325            101325            101325       100704.4229       101324.9991            101325            101325            101325            101325            101325
           0.1325            101325            101325            101325            101325            101325            101325       100778.5724        101324.986            101325            101325            101325            101325            101325
            0.135            101325            101325            101325            101325            101325            101325       100875.1654       101324.8688            101325            101325            101325            101325            101325
           0.1375            101325            101325            101325            101325            101325            101325       100987.6281       101324.2119            101325            101325            101325            101325            101325
             0.14            101325            101325            101325            101325            101325            101325       101110.6169       101321.7887            101325            101325            101325            101325            101325
           0.1425            101325            101325            101325            101325            101325       101324.9997       101241.5423       101315.5353            101325            101325            101325            101325            101325
            0.145            101325            101325            101325            101325            101325       101324.9979       101378.2357       101303.5532            101325            101325            101325            101325            101325
           0.1475            101325            101325            101325            101325            101325       101324.9867       101515.2683       101285.4679            101325            101325            101325            101325            101325
             0.15            101325            101325            101325            101325            101325       101324.9322       101640.9465       101262.4868            101325            101325            101325            101325            101325
           0.1525            101325            101325            101325            101325            101325       101324.7185       101764.9096       101236.8503            101325            101325            101325            101325            101325
            0.155            101325            101325            101325            101325            101325       101324.0396       101887.3215       101211.0573            101325            101325            101325            101325            101325
           0.1575            101325            101325            101325            101325            101325       101322.2676       102012.0262       101187.5102            101325            101325            101325            101325            101325
             0.16            101325            101325            101325            101325            101325       101318.4071       102128.6864       101168.6459            101325            101325            101325            101325            101325
           0.1625            101325            101325            101325            101325            101325       101311.2511       102195.0017       101156.1819            101325            101325            101325            101325            101325
            0.165            101325            101325            101325            101325            101325       101299.7177       102206.5288       101150.5584            101325            101325            101325            101325            101325
           0.1675            101325            101325            101325            101325            101325       101283.1806       102185.0889       101150.6961            101325            101325            101325            101325            101325
             0.17            101325            101325            101325            101325            101325       101261.6781       102159.6888       101156.2117            101325            101325            101325            101325            101325
           0.1725            101325            101325            101325            101325            101325       101236.0851       102125.7859       101165.2785            101325            101325            101325            101325            101325
            0.175            101325            101325            101325            101325            101325       101208.1133       102081.3901       101175.3258            101325            101325            101325            101325            101325
           0.1775            101325            101325            101325            101325            101325       101180.2434       102037.9995       101192.3127            101325            101325            101325            101325            101325
             0.18            101325            101325            101325            101325            101325       101154.9937       101971.7539       101219.0695            101325            101325            101325            101325            101325
           0.1825            101325            101325            101325            101325            101325       101134.7749       101890.5519       101255.1586       101324.9988            101325            101325            101325            101325
            0.185            101325            101325            101325            101325            101325       101120.4508       101805.6708       101297.7344       101324.9783            101325            101325            101325            101325
           0.1875            101325            101325            101325            101325            101325       101112.7386       101709.1524       101342.3277       101324.7899            101325            101325            101325            101325
             0.19            101325            101325            101325            101325            101325       101109.8017       101596.9939       101385.3678       101323.7728            101325            101325            101325            101325
           0.1925            101325            101325            101325            101325            101325       101110.6958       101472.9666       101424.9691       101320.3235            101325            101325            101325            101325
            0.195            101325            101325            101325            101325            101325       101115.5629       101344.0431       101458.6118       101312.3906            101325            101325            101325            101325
           0.1975            101325            101325            101325            101325            101325       101123.2666       101216.3157       101485.2619        101299.089            101325            101325            101325            101325
              0.2            101325            101325            101325            101325            101325       101132.0095        101095.209       101507.1909        101281.541            101325            101325            101325            101325
           0.2025            101325            101325            101325            101325            101325        101145.481       100978.3812       101526.1274       101262.2306            101325            101325            101325            101325
            0.205            101325            101325            101325            101325            101325       101170.6467       100856.5323       101542.5907       101243.8248            101325            101325            101325            101325
           0.2075            101325            101325            101325            101325            101325       101207.6319       100725.6751        101555.842       101228.3828            101325            101325            101325            101325
             0.21            101325            101325            101325            101325            101325       101254.0534       100593.1581       101565.1408       101217.0375            101325            101325            101325            101325
           0.2125            101325            101325            101325            101325            101325       101308.4051       100513.6002       101569.6102       101209.9969            101325            101325            101325            101325
            0.215            101325            101325            101325            101325            101325       101366.6577       100480.1897       101567.1622       101206.7496            101325            101325            101325            101325
           0.2175            101325            101325            101325            101325            101325       101424.5197       100469.9967       101557.3476       101206.2375            101325            101325            101325            101325
             0.22            101325            101325            101325            101325       101324.9997       101478.3774       100487.8304        101545.047       101207.7086            101325            101325            101325            101325
           0.2225            101325            101325            101325            101325       101324.9972       101525.4314       100529.3255       101528.0222       101210.7039            101325            101325            101325            101325
            0.225            101325            101325            101325            101325       101324.9786       101564.3776       100564.8199       101503.7949       101214.3722            101325            101325            101325            101325
           0.2275            101325            101325            101325            101325       101324.8779       101594.2586       100605.8434       101474.8753       101222.2489            101325            101325            101325            101325
             0.23            101325            101325            101325            101325       101324.4701       101615.0441       100662.8089       101442.6435       101237.7288            101325            101325            101325            101325
           0.2325            101325            101325            101325            101325       101323.2068       101627.3135        100734.824        101408.263       101261.0407       101324.9994            101325            101325            101325
            0.235            101325            101325            101325            101325        101320.138       101632.4129       100823.0869       101372.2702       101289.9059       101324.9875            101325            101325            101325
           0.2375            101325            101325            101325            101325       101314.1293       101632.5364       100928.0889       101334.8282        101320.729       101324.8582            101325            101325            101325
             0.24            101325            101325            101325            101325       101304.3842         101628.81       101047.6919       101296.6674       101351.0452        101324.083            101325            101325            101325
           0.2425            101325            101325            101325            101325       101290.9382       101620.3563         101177.83       101258.2378       101379.6623       101321.2975            101325            101325            101325
            0.245            101325            101325            101325            101325       101274.7419       101610.4647       101311.9348        101220.943       101405.5842       101314.7648            101325            101325            101325
           0.2475            101325            101325            101325            101325        101257.338       101599.0493       101449.4199       101187.1816       101428.3531       101303.8899            101325            101325            101325
             0.25            101325            101325            101325            101325       101240.3488       101580.9678       101585.1228       101159.1246       101448.0999       101289.8883            101325            101325            101325
           0.2525            101325            101325            101325            101325       101225.1337       101551.8394       101715.5845       101138.4798       101464.4436        101274.954            101325            101325            101325
            0.255            101325            101325            101325            101325       101212.5289       101513.5127         101845.27       101124.0655       101476.8195        101261.117            101325            101325            101325
           0.2575            101325            101325            101325            101325       101202.9806       101467.6845       101975.8782       101115.5762       101484.8893       101249.6996            101325            101325            101325
             0.26            101325            101325            101325            101325       101196.3893       101415.1313       102093.5691       101110.4439       101488.9466       101241.2731            101325            101325            101325
           0.2625            101325            101325            101325            101325       101192.6284       101359.5225       102162.9743       101108.3548       101489.7678       101235.8191            101325            101325            101325
            0.265            101325            101325            101325            101325       101190.9243       101304.5737       102186.4781        101107.768       101488.4029       101232.9054            101325            101325            101325
           0.2675            101325            101325            101325            101325       101190.7864       101250.6909       102175.7004       101110.2028       101485.1241       101231.9303            101325            101325            101325
             0.27            101325            101325            101325            101325       101192.0411       101199.6939       102143.9732        101118.359       101481.2449       101232.2408            101325            101325            101325
           0.2725            101325            101325            101325            101325         101194.41        101154.742       102105.3745        101133.167       101475.6416        101233.594            101325            101325            101325
            0.275            101325            101325            101325            101325       101197.5345       101116.7954       102071.3528       101153.3583       101464.8697       101235.3769            101325            101325            101325
           0.2775            101325            101325            101325            101325       101203.3397       101086.0688       102030.5116       101178.2103       101447.8736       101239.0238            101325            101325            101325
             0.28            101325            101325            101325            101325       101216.2014       101063.4994       101975.6812       101208.1487       101425.1101        101247.968            101325            101325            101325
           0.2825            101325            101325            101325            101325        101237.932       101048.7228       101905.0837       101242.9469       101398.4977       101263.6888       101324.9993            101325            101325
            0.285            101325            101325            101325            101325       101267.8624        101041.491       101819.2889       101281.8104       101370.0442       101285.4582       101324.9862            101325            101325
           0.2875            101325            101325            101325            101325       101304.3505       101039.3986       101717.4991       101323.7746       101341.1168       101310.6904       101324.8527            101325            101325
             0.29            101325            101325            101325            101325       101344.1909        101041.331       101601.6917        101367.516       101312.7008       101336.7929       101324.1019            101325            101325