# Probe 0 (-126 0 0)
# Probe 1 (-105 0 0)
# Probe 2 (-84 0 0)
# Probe 3 (-63 0 0)
# Probe 4 (-42 0 0)
# Probe 5 (-21 0 0)
# Probe 6 (0 0 0)
# Probe 7 (21 0 0)
# Probe 8 (42 0 0)
# Probe 9 (63 0 0)
# Probe 10 (84 0 0)
# Probe 11 (105 0 0)
# Probe 12 (126 0 0)
#           Probe                 0                 1                 2                 3                 4                 5                 6                 7                 8                 9                10                11                12
#            Time
            0.025            101325            101325            101325            101325            101325            101325            101325            101325            101325            101325            101325            101325            101325
             0.05            101325            101325            101325            101325            101325            101325            101325            101325            101325            101325            101325            101325            101325
            0.075            101325            101325            101325            101325            101325            101325            101325            101325            101325            101325            101325            101325            101325
              0.1            101325            101325            101325            101325            101325            101325            101325            101325            101325            101325            101325            101325            101325
            0.125            101325            101325            101325            101325            101325            101325       100704.7032            101325            101325            101325            101325            101325            101325
             0.15            101325            101325            101325            101325            101325       101324.9969       101715.6027       101272.3338            101325            101325            101325            101325            101325
            0.175            101325            101325            101325            101325            101325       101218.8484        102059.914       101171.9265            101325            101325            101325            101325            101325
              0.2            101325            101325            101325            101325            101325       101093.3394       101007.3901       101513.6921       101322.3266            101325            101325            101325            101325
            0.225            101325            101325            101325            101325            101325       101592.9776       100618.1198       101499.3056       101192.2394            101325            101325            101325            101325
             0.25            101325            101325            101325            101325       101271.7313       101598.5308       101676.5621       101159.1302       101453.9067       101324.9559            101325            101325            101325
            0.275            101325            101325            101325            101325       101142.3093       101088.2863       102047.4834        101163.568       101470.5852       101211.0003            101325            101325            101325
              0.3            101325            101325            101325            101325       101529.8927       101058.2532       100995.5678       101504.6252       101212.7442       101433.1261       101324.9951            101325            101325
            0.325            101325            101325            101325       101302.3815        101551.358       101579.3233       100610.5304       101503.7604       101191.3387       101464.7233       101224.6632            101325            101325
             0.35            101325            101325            101325       101172.0934       101148.0064       101589.2844       101673.3748       101147.4843       101450.5255       101239.4808       101426.0874       101324.9995            101325
            0.375            101325            101325            101325       101503.1658        101104.257       101084.0958       102043.4945       101155.6109       101469.9897       101192.9894       101450.1987       101234.4305            101325
              0.4            101325            101325       101314.9149       101522.1613       101519.8167       101055.8516       100986.6905       101513.9553       101204.4471       101427.0963       101251.1099       101413.8046            101325
            0.425            101325            101325        101190.714       101172.5351       101545.2424       101580.0258       100608.3655       101491.5107       101189.1485       101458.5127       101203.9216       101438.0659       101241.8169
             0.45            101325            101325        101484.767       101136.8021        101144.147       101588.9972       101673.2547       101150.1304       101446.4562       101232.9891       101428.5842       101265.3513        101403.783
            0.475            101325         101321.06       101499.5939       101493.8042       101103.2793       101079.1615       102042.8051       101156.3656       101463.2665       101205.4479       101445.9355       101215.4379       101428.5782
              0.5            101325       101203.8211       101186.8676       101517.6194       101522.3976       101049.1399       100987.7582       101514.4664       101213.4093       101412.3615       101249.8804       101424.2257       101281.3523
            0.525            101325       101467.3694       101159.5083       101169.6238       101547.0927       101575.9465       100606.0848       101499.6486        101191.504       101449.2701        101217.657       101434.2881       101225.1005
             0.55       101308.6595       101482.3982        101478.879       101134.3861       101143.3774       101585.5134       101673.7098       101162.6653       101453.0936       101234.9122       101401.0611       101250.3784       101412.7157
            0.575       101213.5493       101196.7034       101495.0296       101492.9545        101104.522       101077.1616       102044.1227       101138.8042       101459.9271         101202.24       101436.3095       101223.5301       101426.0209
              0.6       101464.6766       101175.6935       101185.1337        101514.783       101515.0058       101050.6718       100990.4372       101496.9074       101202.8982       101417.7818       101260.9124       101382.9377       101260.8449
            0.625          101470.5       101463.8198       101158.4446       101170.6699       101533.0085       101580.1844       100609.7077       101499.5093       101171.5685       101454.6319       101216.0097       101423.8527       101232.9026
             0.65       101194.1264       101478.3419        101478.827       101140.5313        101138.783        101595.586       101673.7022       101143.7012       101490.2429       101240.1901       101387.5717        101259.613       101374.8228
            0.675       101187.6628        101194.774        101492.514       101490.2205       101099.3259       101084.9251       102053.0549        101157.014       101462.2967       101203.3878       101433.9696       101229.5085       101418.2573
              0.7       101461.2096       101175.9601       101179.0305       101524.0725       101518.3872       101053.9664       100988.5633       101519.2363       101219.5838       101409.4536        101255.858        101405.129       101275.3435
            0.725       101466.9104       101461.8413       101156.5673       101175.3739       101537.1974        101582.967       100617.6523       101525.2378       101201.1521         101450.04        101219.089       101419.4796       101239.7234
             0.75       101194.3846       101475.3686       101477.3663       101134.2466       101119.0985       101591.7547       101676.3043       101168.5077       101459.6343       101256.6733       101431.6744       101273.8706       101397.6532
            0.775       101185.8076       101190.0488        101496.842       101483.0026        101096.695       101077.9232       102056.4129       101142.8737       101492.6755       101199.5829       101436.6737       101227.4578        101417.476
              0.8       101457.2039       101178.4598       101191.2854        101507.666       101519.7497       101058.7394       101033.3238       101510.3881       101227.1092       101456.8776       101278.1223       101402.9516       101270.4004
            0.825       101467.9165       101449.9024       101141.4683       101177.6965       101541.8042       101595.1375       100629.4395       101508.7774       101190.8894        101457.444       101207.4362       101421.5942       101228.7762
             0.85       101198.2579       101481.2322       101489.1052       101142.3623        101132.022       101594.3097       101677.2595       101114.7061       101443.3899       101227.2381       101423.7671        101254.546       101398.6524
            0.875       101182.9267       101202.5682       101484.1194       101472.8577       101124.1848       101105.4449       102066.3807       101193.0703       101485.3651       101216.6715       101431.3401       101205.8527       101418.4504
              0.9        101456.382       101171.2373       101194.3679       101542.7581        101540.478       101075.7109        100967.712       101551.0893       101217.9877       101446.9218       101246.0609       101417.1345       101253.1454
            0.925       101473.0709       101462.0415       101158.2813       101128.4394       101514.2419       101563.1562       100616.1222       101546.7698       101203.2153       101464.9081       101232.3882       101415.8495       101233.4117
             0.95       101197.7093       101495.7459       101473.9066       101135.2131       101167.8757       101625.1121       101696.2858       101200.8523       101456.0567       101235.0582       101410.6517       101286.0531       101376.9293
            0.975       101177.2693       101206.7636       101514.4035       101507.0817       101051.5984       101099.1114       102076.0939       101192.4413       101460.6592       101213.9178       101439.0504       101228.3825       101413.3601
                1       101458.8355       101158.5336       101201.3609       101532.5277       101526.5915       101065.1923       101095.3827       101529.3222       101230.5905       101437.6722       101210.5575       101399.2225       101284.1799
            1.025       101479.9952       101457.6626       101154.7001       101172.0443       101538.8813       101511.4088         100650.83       101442.7158       101171.9415       101447.9736        101223.677       101437.5364       101226.8374
             1.05       101194.8951       101495.1868        101467.704       101156.2099       101228.8068       101634.1514       101740.6412        101186.291       101422.5043       101212.0895       101390.1791       101233.1709       101424.0853
            1.075       101170.9462       101205.3618       101505.5884       101500.2024        101136.068       101134.8232        101974.411       101151.0281       101413.0388       101241.1083       101425.6678       101233.3275        101435.605
              1.1       101464.0119       101154.7937       101197.3847       101486.6534        101548.798       101161.8435       101049.0695       101465.9337       101232.1637       101406.6718       101243.4225       101363.3763       101256.8273
            1.125       101482.0556       101443.7626       101160.1442       101172.6836        101558.197       101637.2001       100602.4688       101420.5545       101173.8264       101415.0669       101194.2987       101431.5475       101221.4638
             1.15       101193.9557       101491.9916       101456.0085       101152.8208       101108.4047       101656.7235       101767.8364        101146.993       101409.7318         101276.57       101466.8376         101262.21       101376.9361
            1.175       101165.7781       101207.6856       101473.4854        101492.917       101117.9492         101118.15       101956.1272       101215.6245       101372.1233       101217.4785       101414.7097       101241.7546       101434.8899
              1.2       101468.6587       101157.9863       101216.5818       101504.5677       101489.3532       101030.6698       100951.2819       101652.2784       101258.1861       101372.9009       101300.0868       101402.0607       101239.9441
            1.225       101477.9354       101455.1444       101157.3506       101174.9099       101534.0652       101556.0537       100707.2483       101483.8767       101369.9172        101371.796       101252.9329       101356.7727       101192.9627
             1.25       101191.3996       101517.6493       101451.6768        101152.188       101131.6367       101609.9706       101846.5347       101200.5991       101525.1877       101262.7687       101381.4356       101297.7335       101423.9895
            1.275       101165.9931       101243.2565       101465.1806       101432.8017       101126.8811       101119.0569       102103.6058       101206.9303       101506.0255       101389.1965       101362.4777       101219.6886       101413.5005
              1.3       101460.0895       101182.2495       101174.5754       101454.2438       101536.6363       101011.2781       100967.5639       101693.3252       101237.8457       101535.0605       101266.2704       101402.8564       101285.6316
            1.325       101485.8219       101439.9375       101132.0905       101180.8084       101584.7195        101459.472       100617.2073       101544.3829       101290.8655         101385.66       101293.2311       101315.1363       101222.5549
             1.35       101200.1541       101465.5376       101464.6974       101151.1632       101133.8851       101698.3253       101690.1704       101133.9634        101510.079       101260.6808       101484.3541       101227.8988       101396.6893
            1.375       101138.8863       101204.7776       101526.9923        101457.207       101084.8862       101183.0582       101986.4197       101188.6345       101541.7927       101388.6845       101518.8194       101351.8419       101353.4238
              1.4       101425.3855       101183.0468       101205.4923       101503.8067       101515.2722       101009.7294       100935.7145       101346.7954       101261.7134       101370.7868       101277.1357       101482.6136       101222.6073
            1.425       101486.4987       101465.9555       101112.8587       101215.5784       101582.5169       101412.1184       100809.5379       101413.2264       101457.7043       101488.4468       101270.7278       101461.7069       101297.3243
             1.45       101262.5331       101452.5465       101453.8059       101135.7904       101195.9797       101573.3413       101718.1569       100904.2537       101224.4754        101356.323       101408.4999       101294.0806       101467.9964
            1.475       101213.2157       101191.8967       101559.2609       101454.3079       101071.5599       101178.3131       101987.1009       101224.0918       101429.9662       101016.2541       101458.8189       101361.0872       101366.2491
              1.5       101407.9441       101212.3175       101228.8624       101500.8703       101455.0302       101051.4696       101226.1212         101538.99       101128.8066       101423.1101       101310.1232       101518.4188       101203.7552
            1.525       101463.6638       101497.0284       101115.2213        101204.169       101561.5187       101399.1947        100602.262       101554.4472       101235.8459       101417.8559       101245.8885       101511.0217       101306.9759
             1.55       101225.9743       101453.0967       101438.2832       101141.9956        101177.283       101615.4742        101370.278       101361.5182       101490.4869       101374.3244       101214.0823       101349.2283       101462.5505
            1.575       101168.1323       101157.3477        101530.742       101506.7492       101029.6702       101039.8763       101909.3963       100967.0739       101570.9569       101070.9091       101563.0766        101155.186       101531.9302
              1.6       101415.6893       101188.1185       101233.8011       101517.1563       101423.6017       100971.4537       101175.8509       101452.5947       101387.3913       101451.5711       101249.2087       101454.3578       101308.8858
            1.625       101462.6495         101527.41       101156.2877       101150.3398       101533.9464       101543.1157       100740.1058       101360.1553       101110.9831       101490.3066       101199.2113       101504.4607       101222.4222
             1.65       101241.7616       101496.8051       101419.7283       101137.2887       101237.0301       101641.4909       101709.3972       101252.5715       101369.9344       101267.6424       101359.5183       101379.7905       101321.1885
            1.675       101179.1623       101166.4717       101505.4124       101471.6421       101095.0225       101043.6947        101892.027       101048.8045       101246.0649       101317.1624       101462.2175       101169.8245        101534.966
              1.7       101383.3375       101130.3736       101191.1163       101580.1188       101452.9484       101062.1076       100826.9262       101594.9555       101254.5197       101322.5458       101392.2041       101267.2629       101327.2666
            1.725       101401.5592       101485.5413       101157.4303       101140.9169       101584.0472       101475.9995       100312.7967       101374.6146       101086.6323       101571.6672       101159.4106       101445.4707       101209.6322
             1.75       101252.2115       101485.2364       101427.0645       101172.5697       101226.6538       101702.5666        101489.049       101067.4246       101536.0384       101153.1505       101402.8432       101345.4268        101141.254
            1.775        101227.594       101237.7422       101474.1623        101508.028       101099.0474       101160.7076       102079.5668       100993.4768       101425.5627       101270.6301       101455.5111       101166.7014       101522.0991
              1.8       101444.4343       101142.2671        101215.093       101568.9855       101509.5894       101146.2397       101093.8559       101644.6178       100998.8223       101452.0459       101401.0907       101329.2508       101400.7953
            1.825       101381.2434       101480.2222       101164.6999       101160.3082       101610.3113       101620.8038       100582.8688       101649.5403       101195.2428       101383.5559       101161.1344       101484.2123        101049.771
             1.85        101174.902       101478.6165       101421.5162       101207.1622       101140.8719       101591.8528       101737.2714       101382.0503       101610.6076       101354.3496       101317.1105       101286.7636       101431.5325
            1.875       101195.7305       101289.5558       101491.4759       101426.5287       101146.9728       101165.1103       102042.5464       101222.3342       101565.7383       101405.9571       101491.4994       101160.4833       101449.5965
              1.9       101438.9772        101177.234       101240.2336       101544.2726       101491.6425       100935.4007       101115.8323       101545.7974       101168.6333       101333.7844       101399.3155       101310.1469       101354.4106
            1.925       101473.0106       101446.1425       101197.0692       101187.5601       101588.8482       101556.7722       100442.3665       101401.9116       101244.9808        101460.926       101111.6282       101500.5737       101167.3182
             1.95       101192.7868       101435.9471       101409.6001       101197.9991       101126.7806       101721.9572       101858.0036       101409.5008       101497.3732       101363.1405       101436.9066       101422.8525       101380.2477
            1.975       101174.3988       101260.5312        101503.257       101468.6735       101181.5577       101098.0035       101811.7758       100924.8077        101688.907       101278.1335       101463.5661       101216.9081       101540.0129
                2       101474.8493       101123.4616        101263.626       101520.0476       101518.9889       100965.2681       101274.6613        101725.059       101186.6254       101394.7981        101395.129       101338.6862       101406.9519
# Probe 0 (-126 0 0)
# Probe 1 (-105 0 0)
# Probe 2 (-84 0 0)
# Probe 3 (-63 0 0)
# Probe 4 (-42 0 0)
# Probe 5 (-21 0 0)
# Probe 6 (0 0 0)
# Probe 7 (21 0 0)
# Probe 8 (42 0 0)
# Probe 9 (63 0 0)
# Probe 10 (84 0 0)
# Probe 11 (105 0 0)
# Probe 12 (126 0 0)
#           Probe                 0                 1                 2                 3                 4                 5                 6                 7                 8                 9                10                11                12
#            Time
            2.025       101505.6518       101431.4715       101179.2264       101184.8501       101607.3577       101655.0939        100728.916       101478.0922       101303.4351       101471.8663       101085.7489       101451.6129       101207.5378
             2.05        101193.416       101487.4321       101430.8165       101187.6678       101123.2241       101695.9782       101785.4862       101286.5278       101570.6959       101346.5287       101437.4448       101294.5222       101405.3397
            2.075       101135.2983       101283.2137       101475.5336       101466.9517       101108.3553       101094.7436       102118.8721       101160.9401       101576.7784       101195.7287       101505.4128       101206.9063       101449.6889
              2.1       101472.8363        101095.167       101201.9287       101546.7154       101553.2695       100879.9918       101312.6111       101648.1717       101229.9275       101335.7116       101377.0552       101388.1492       101338.4845
            2.125       101531.0361       101459.4127       101170.3044       101186.4383        101540.929       101476.2628       100682.7281       101518.6811       101182.0118       101385.5901       101169.5086       101527.5965       101197.7746
             2.15       101227.4612       101474.2794       101445.5274       101168.5486       101203.3911       101666.2065       101766.2606       101298.7635       101577.6727        101454.588       101462.9327       101364.9115       101405.8774
            2.175       101162.0067       101244.1742       101500.9173       101480.5625       101085.9288       101022.5297       101757.0491       101225.7411       101410.8931       101137.2943       101570.2595       101160.9301       101473.1855
              2.2       101481.1577       101122.6585       101230.3269        101473.595       101436.5934       101013.7208       100904.6434       101665.9805       101298.5903       101227.9372       101207.5994       101389.2616       101382.8615
            2.225       101532.4592       101453.5637       101157.6426       101145.1921       101511.5826       101393.3741       100480.5639       101334.1198       101246.5826       101428.9971       101037.3343       101517.7322       101098.7125
             2.25       101207.0376       101487.7997       101446.2241       101171.0087       101219.5529       101531.6222       101805.5097        101003.718       101294.8373       101368.1265       101405.3252       101280.3458         101431.65
            2.275       101140.8603       101291.3318       101475.2222       101491.0973       101066.9415       101053.3379       102387.2185       101066.7061       101535.4811       101077.3588       101489.8867       101289.3069       101444.2006
              2.3       101460.2114       101141.6646       101231.1006       101507.9945       101479.2284       101009.8167       100850.9608       101562.8028       101251.2987       101354.6285       101252.9359       101293.6131       101376.8473
            2.325       101522.0194       101446.5045        101160.377       101189.4742       101446.7352       101567.9383       100461.1715       101676.0531       101076.2901       101620.3203       101135.0547        101486.321       101111.8323
             2.35       101214.5007       101486.9971       101437.5015       101152.4941       101144.2693       101651.7872        101396.015       101364.0007        101639.728       101354.6739       101427.2995       101316.5552       101343.2398
            2.375       101138.6236       101279.5163       101483.5963       101492.5901       101028.6421       100926.7156        101894.628       100859.0464       101539.4767       101282.0854       101516.3771       101189.3348       101468.1628
              2.4       101477.8756       101143.7713       101233.6988       101542.7009       101477.7155       101221.9441       101110.0201       101506.8977       101070.8711       101339.3268       101304.6829       101354.5966        101343.902
            2.425       101504.8834       101467.2379       101157.9287       101187.6539       101476.1679        101641.427       100440.6196        101425.985       100871.5938       101412.6423       101072.1953       101458.9262         101189.52
             2.45       101209.6974       101491.7296       101458.2008       101124.7752       101098.9812       101667.5642       101559.1559       101351.2427       101517.5134       101408.5917       101324.7892       101231.7182       101315.3833
            2.475       101169.4351       101274.1912       101474.9474       101468.0634       101040.0629       100916.9178       102041.5263       101033.8381       101631.6667       101362.8421       101577.4538       101148.0792       101443.1193
              2.5       101489.1533       101131.0745       101208.2212       101545.2835       101492.4938       100891.0562       101085.2733        101584.652       101265.2062       101434.0023        101356.972       101502.0414        101275.622
            2.525        101502.097       101459.8099       101154.5691       101218.8992       101554.5531       101408.1271       100490.0258       101466.4775       101238.7633       101501.6126       101171.5414         101377.66       101442.5392
             2.55       101216.7108       101472.6547       101471.0308       101172.0599       101209.1312       101713.7923       101338.5134       100986.3121       101393.4884       101240.5136       101252.3134        101413.238       101257.8441
            2.575        101164.443       101293.0096       101507.7642        101473.194       101058.0445       101179.7946       102379.5555       101107.0424       101395.3142       101076.3823       101499.0752       101143.4406       101452.9686
              2.6       101466.5951       101128.4744       101218.5478        101520.174       101500.8706       101064.7514       100905.5812       101323.5208        101223.356       101463.5593       101374.7591       101447.1237       101400.4388
            2.625       101510.9372       101468.1748       101157.5254       101224.7262        101464.513        101737.092       100403.5376       101664.5466        101083.495       101462.5465       101108.5837       101473.8574       101285.3486
             2.65         101220.68       101474.8789       101469.9314       101173.1813       101134.3381       101521.4105       101510.2294       101242.4329       101276.9529        101428.285       101442.1079       101301.0234       101275.2906
            2.675       101176.7356       101257.7451       101498.8506       101469.3941       101048.7723       101091.6746       101982.5303       101073.6764       101650.4821       101033.2787       101549.4024       101195.7295       101440.0342
              2.7       101489.0809       101116.6895       101206.4789        101500.244       101443.9266       101208.5433       101449.0679       101298.4063       101140.6334       101729.9661       101151.4048        101500.562       101390.5236
            2.725       101495.1357       101475.9791       101152.5897       101244.0485       101477.8517       101445.7976        100658.063       101528.1161        101084.903       101418.6331         101397.55       101417.4687       101322.3372
             2.75       101221.9818       101469.4837       101468.1076       101120.5832       101246.4218       101511.7385       101463.8766        101093.921       101289.6959       101203.3893       101159.1809       101456.6219       101367.0653
            2.775       101189.7828       101290.5382       101502.3967       101468.8706       101096.4593       101034.5557       102082.8884       101074.1117       101643.5269       101255.0507       101525.8037       101091.6918       101484.6013
              2.8       101499.5377       101127.6234       101199.3698       101514.6414       101464.8381        101070.033       101076.8464       101264.3323       101291.7579       101593.8422       101245.2071       101515.4246        101305.255
            2.825         101503.68       101469.8574       101144.1735       101252.6134       101489.1962       101433.8671       100411.3311        101578.776       101210.3162       101314.9607       101285.3513       101422.2695       101280.6313
             2.85       101229.4662       101452.3709        101438.237       101135.9073       101217.3741       101759.6828       101900.1265       100933.1967       101404.7515       101234.7263       101223.7117       101279.0908       101330.1187