# Probe 0 (-126 0 0)
# Probe 1 (-105 0 0)
# Probe 2 (-84 0 0)
# Probe 3 (-63 0 0)
# Probe 4 (-42 0 0)
# Probe 5 (-21 0 0)
# Probe 6 (0 0 0)
# Probe 7 (21 0 0)
# Probe 8 (42 0 0)
# Probe 9 (63 0 0)
# Probe 10 (84 0 0)
# Probe 11 (105 0 0)
# Probe 12 (126 0 0)
#           Probe                 0                 1                 2                 3                 4                 5                 6                 7                 8                 9                10                11                12
#            Time
           0.0125            101325            101325            101325            101325            101325            101325            101325            101325            101325            101325            101325            101325            101325
            0.025            101325            101325            101325            101325            101325            101325            101325            101325            101325            101325            101325            101325            101325
           0.0375            101325            101325            101325            101325            101325            101325            101325            101325            101325            101325            101325            101325            101325
             0.05            101325            101325            101325            101325            101325            101325            101325            101325            101325            101325            101325            101325            101325
           0.0625            101325            101325            101325            101325            101325            101325            101325            101325            101325            101325            101325            101325            101325
            0.075            101325            101325            101325            101325            101325            101325            101325            101325            101325            101325            101325            101325            101325
           0.0875            101325            101325            101325            101325            101325            101325            101325            101325            101325            101325            101325            101325            101325
              0.1            101325            101325            101325            101325            101325            101325            101325            101325            101325            101325            101325            101325            101325
           0.1125            101325            101325            101325            101325            101325            101325       100886.5962            101325            101325            101325            101325            101325            101325
            0.125            101325            101325            101325            101325            101325            101325       100707.5214            101325            101325            101325            101325            101325            101325
           0.1375            101325            101325            101325            101325            101325            101325       101093.0044       101324.8821            101325            101325            101325            101325            101325
             0.15            101325            101325            101325            101325            101325       101324.9851       101706.0791       101266.2176            101325            101325            101325            101325            101325
           0.1625            101325            101325            101325            101325            101325       101317.5279       102105.2239       101135.0094            101325            101325            101325            101325            101325
            0.175            101325            101325            101325            101325            101325       101214.7301       102060.7666       101177.1362            101325            101325            101325            101325            101325
           0.1875            101325            101325            101325            101325            101325       101076.6314       101604.7822       101351.7628            101325            101325            101325            101325            101325
              0.2            101325            101325            101325            101325            101325       101106.1888       101019.1288       101511.8575       101294.3197            101325            101325            101325            101325
           0.2125            101325            101325            101325            101325            101325       101337.3636       100591.0353       101580.6884       101187.4907            101325            101325            101325            101325
            0.225            101325            101325            101325            101325            101325        101580.784       100616.0225       101499.8342       101202.7881            101325            101325            101325            101325
           0.2375            101325            101325            101325            101325       101324.9285       101664.9605       101036.9732       101323.3639       101333.0986            101325            101325            101325            101325
             0.25            101325            101325            101325            101325       101250.1913       101587.8032       101664.6699        101159.343        101452.575       101315.8125            101325            101325            101325
           0.2625            101325            101325            101325            101325       101153.9995       101340.2403       102081.2305       101084.5933       101506.2171       101212.5991            101325            101325            101325
            0.275            101325            101325            101325            101325       101156.4278       101099.5829       102046.8488       101162.4518       101463.0394       101216.7782            101325            101325            101325
           0.2875            101325            101325            101325            101325        101316.922       101003.4052       101617.7701       101337.2311       101333.7567       101325.5514            101325            101325            101325
              0.3            101325            101325            101325            101325       101509.3862       101068.6545         101005.22       101503.1612       101212.9774       101428.6358       101322.5615            101325            101325
           0.3125            101325            101325            101325       101324.9993       101562.6662        101316.746       100587.0013        101569.259       101153.0771       101472.5858       101227.8586            101325            101325
            0.325            101325            101325            101325       101273.6318       101533.4742       101567.1826       100611.5125       101500.3117       101193.7463       101450.3465        101228.715            101325            101325
           0.3375            101325            101325            101325       101187.9795       101349.8626       101655.3685        101039.682        101317.466       101321.3308       101338.3147       101320.4093            101325            101325
             0.35            101325            101325            101325       101184.8769       101166.0845       101579.7175       101662.8495       101152.2795       101447.0722         101235.66       101415.4595       101324.2918            101325
           0.3625            101325            101325            101325       101298.9088       101101.4709       101337.0647       102073.0349       101081.6163       101499.8254       101184.8294       101452.6011       101238.7104            101325
            0.375            101325            101325            101325       101475.2842       101120.2357       101095.8273       102043.7138       101159.3135       101461.9701       101204.5244       101443.6504       101237.6922            101325
           0.3875            101325            101325            101325       101517.7953       101304.7011       101000.1629       101613.6844       101331.6175       101332.2751       101315.1429       101341.1219       101314.2302            101325
              0.4            101325            101325       101289.7194       101507.6997       101499.6214       101066.4803       100998.3296       101505.9793       101209.3792        101423.905       101247.9127       101406.4936       101324.8146
           0.4125            101325            101325       101208.9272       101356.7887       101555.7583       101314.3741       100590.3972       101569.2644        101149.846        101467.381       101203.8059        101438.989       101247.0685
            0.425            101325            101325        101202.996       101197.0561       101527.9015       101566.1892       100609.0896       101490.2738       101193.4634       101449.1402       101211.0523       101435.0258        101244.575
           0.4375            101325            101325       101279.2541       101144.5974       101347.1359       101652.9311        101039.112       101319.3904       101319.7075       101337.0537       101311.0506        101343.465       101306.2319
             0.45            101325            101325       101453.7428       101148.6937       101163.4507       101577.8177       101662.7454       101153.2377       101444.3602        101232.825       101411.4603       101255.9422       101399.9264
           0.4625            101325            101325       101490.7495       101294.5465       101099.0582       101335.7663       102071.3862       101082.7115       101502.5733       101182.5747       101448.0521       101216.7506       101428.9526
            0.475            101325       101300.8672       101488.1829       101467.2108       101118.5407       101093.2838       102043.5447       101158.3812       101454.8361       101205.4965       101440.8574       101219.8964       101426.5744
           0.4875            101325        101223.868       101364.7114       101511.9661        101303.127       101001.1308       101612.7472       101329.9195       101333.0901       101314.5094       101339.8604       101307.6288       101346.3099
              0.5            101325       101215.8011       101216.8597       101502.9487       101498.4178       101065.1397       100998.9848        101500.554       101209.6976       101421.1432       101245.2689       101403.1573       101261.7369
           0.5125            101325       101263.3465       101170.1648       101354.3715       101554.0459        101313.887        100588.283        101569.181       101149.1205       101469.1822       101201.9585       101434.8994       101226.2885
            0.525            101325       101436.8548       101170.2251       101195.0622        101526.442       101566.1677       100608.9545       101494.1159       101194.5391       101440.2947       101210.7842       101431.2095        101228.031
           0.5375       101324.9991       101472.4059        101280.158       101142.5997       101345.6142       101651.9357       101038.2051       101321.2743        101319.015       101337.4264       101310.8642       101342.3943       101303.6348
             0.55       101284.5698        101472.249       101446.7184       101147.0356       101162.2347        101577.707       101661.7942       101152.6034       101444.1212       101232.9464       101409.1846       101253.4127       101397.0455
           0.5625       101229.3186       101377.0845       101485.8063       101293.4437       101099.5138       101334.8863       102071.8555       101081.9818       101502.2752         101181.97       101449.5181       101215.1448       101425.2134
            0.575       101225.3807       101230.5596        101483.622       101466.2571       101118.1975       101093.5411       102043.0389       101154.8111       101456.8987       101208.2142       101435.4899       101218.6785       101422.8959
           0.5875       101302.7447       101187.9308       101363.0743        101510.527       101302.6205       101000.1063         101612.57       101331.1242       101333.2717       101313.7723       101340.9368       101307.7102       101345.8777
              0.6       101439.9506        101185.683       101214.8936       101501.8069       101498.3003       101064.6385       100999.0064       101500.5376       101210.8127        101420.802        101245.417       101401.3529       101259.3481
           0.6125       101460.7202        101262.919       101168.5871       101352.9227       101553.4114       101313.5661       100588.4729       101568.6845       101147.6082       101469.1115        101201.592       101436.1702       101224.8757
            0.625       101459.6708       101431.4976        101168.554       101194.1693       101526.2477       101565.4216       100608.8601       101494.4072        101192.652       101440.1337       101212.9685       101431.1698       101226.8697
           0.6375       101340.5942        101467.932        101279.773       101142.9098       101345.2198       101652.0715       101038.4854       101320.1266       101320.3624       101336.8762       101309.8188       101343.8799       101304.0356
             0.65       101224.1888       101468.0405       101445.6981       101147.1711       101162.2812       101577.6003       101661.4988       101152.5365        101444.508       101232.9443       101408.6733       101253.3635       101395.5796
           0.6625       101198.1409       101375.7856       101484.5556       101292.7942        101098.831       101334.7261       102070.9337       101081.4799       101500.1864       101180.8529       101449.3161       101214.8983       101426.3527
            0.675       101197.7131       101229.0808       101482.5168       101465.9648       101117.6152       101093.6301       102042.9693       101154.1817       101456.3762       101208.2828       101435.0093       101218.9131       101423.8495
           0.6875       101304.8629       101186.3202       101361.8119       101510.1487       101302.4366       101000.1605       101612.0934       101331.5789       101333.3307       101313.9234       101340.4154       101306.4676       101346.5859
              0.7       101435.6119       101184.1853       101214.1777        101501.363       101497.8077       101064.6157       100998.6002       101500.6192       101209.6251       101420.6711       101245.8488       101401.0237        101259.097
           0.7125       101456.6692       101262.7033       101168.7756       101352.8767       101553.4721       101313.6677       100588.1803       101568.5336       101148.4488        101470.009       101200.9482       101435.9243       101224.6981
            0.725       101455.7775       101430.4986       101168.8061       101194.0415       101526.2232       101565.2352       100608.7195       101494.9251       101191.2052       101439.3066       101213.7852       101430.8864       101226.9224
           0.7375       101339.6972       101466.9256       101278.4889       101142.3702       101345.0192       101651.5453       101038.4572       101319.7999       101318.7712       101336.7786       101309.8687         101343.36       101303.0803
             0.75       101222.7529       101467.0853       101445.7174       101146.6087       101162.3649       101577.2958       101661.5776       101152.0168       101443.1383       101232.8488       101407.9661       101253.5902       101395.4283
           0.7625       101196.6832       101374.6684       101484.1049       101292.5218       101098.8393       101334.4598       102071.0214       101080.9971       101498.5415       101180.1921       101449.9783       101214.4319       101426.0894
            0.775       101196.3554         101228.38       101482.1445        101465.681       101117.6183       101093.2786       102043.1718       101154.0842       101458.2706       101207.6324       101433.1545       101218.7685       101423.5223
           0.7875       101304.6562        101186.571       101361.7532       101510.0086       101302.5136       101000.0766       101612.0264       101331.0691       101330.8279       101313.9769        101340.173       101306.4438       101346.0732
              0.8       101434.7027       101184.3133       101214.2119       101501.5128       101497.6536       101064.7044       100998.6971       101500.4907       101207.1993        101420.874       101245.9782       101400.3215       101259.1621
           0.8125        101455.821       101261.6185       101168.2836       101352.5189       101553.0869       101313.7055       100587.9471       101568.9522        101151.298       101470.0392       101200.6258       101436.4017       101224.3284
            0.825       101454.9354       101430.3431       101168.2959       101194.2303       101525.9742       101565.3987       100608.3881       101494.8107       101189.8545       101440.4625       101214.4226       101430.4519       101226.6733
           0.8375       101338.3864       101466.5392       101278.3489       101142.3215       101344.8711       101651.6989       101038.2127       101320.0708       101318.7403       101337.0228       101309.8557       101343.4033       101303.2199
             0.85       101222.5725        101466.721       101445.3394       101146.7449       101162.0317        101577.501       101661.2967       101152.2538       101444.4054       101232.5348       101407.9729       101253.7159       101394.9244
           0.8625        101196.799       101374.8239        101484.148       101292.5422       101098.8592       101334.4489        102070.865       101080.9338       101498.5311       101180.2952       101450.0319       101214.4757       101426.3824
            0.875       101196.4147       101228.3022       101482.1173       101465.6538       101117.5039       101093.4056       102043.0572       101154.0394       101458.3265       101207.0822       101432.8387       101218.7099       101423.9369
           0.8875       101303.9975       101186.1702        101361.798       101509.7072       101302.5803       100999.7345       101612.2182       101330.9271       101331.4666        101314.289       101340.2318       101306.5208        101345.831
              0.9       101434.4034       101183.9121       101213.9635       101500.9443        101497.602       101064.4554       100998.6921       101500.1865        101208.126       101421.5443       101245.3416         101399.87       101259.8995
           0.9125        101455.474        101261.187        101168.482       101352.5112       101553.2473       101313.2448       100588.2207       101568.9597       101152.5724       101468.2653       101200.4179       101436.4183       101223.5474
            0.925       101454.6132       101430.2161       101168.2853       101193.6982       101525.8991       101564.9685       100608.5454       101494.2019       101189.6594       101441.1288       101214.4712       101430.2654       101227.0575
           0.9375        101338.621       101466.4866       101278.4284       101142.8018       101344.4937       101651.6372       101037.9868        101320.179       101318.9338       101336.9488       101309.7481       101343.4367       101303.0219
             0.95       101222.4059       101466.8939       101445.6959        101146.413       101162.0874       101577.2836       101661.4371       101152.0683       101445.2391       101232.2976       101408.6629       101254.0191       101394.2507
           0.9625       101196.4262       101374.2813       101483.5896        101292.461       101098.3398         101334.55       102070.6564       101081.2044       101497.2721       101182.8442       101449.8229        101214.242       101426.6678
            0.975       101195.9679       101228.4739       101482.5804       101465.7787       101117.3677       101093.3389       102042.9556       101154.1083       101458.4864       101207.1261       101433.0904       101218.5707       101423.7063
           0.9875        101303.707       101185.9792       101360.5198       101509.3801       101302.5874       100999.9496       101612.0491        101331.188       101331.1608       101314.4269       101340.4898       101306.1518       101346.2405
                1       101434.0251       101184.7043       101214.6532       101501.4099       101497.4795       101064.8669       100998.3673       101500.5154       101207.8027       101421.9689       101244.8569       101400.3364       101260.0124
           1.0125       101456.0508       101261.5282       101167.8493       101352.7437       101553.2739       101313.2114       100588.1186       101568.3623       101152.4573        101467.659       101199.8297       101436.3636         101223.45
            1.025       101454.5236       101429.2514       101167.6767       101193.6928       101526.2055       101565.0074       100608.4198       101494.7112       101189.2307       101442.8057       101214.5817       101430.2638       101226.8588
           1.0375       101339.0644       101466.6747       101279.6098       101142.6837       101344.6046       101651.6352       101038.4526       101319.8034       101319.4483       101334.9924       101309.7101       101343.6623       101302.7556
             1.05       101222.0339       101465.5828       101444.3535         101145.94       101162.2131       101576.8311       101661.2641       101151.8657       101445.4261       101230.3786       101408.8994       101253.5982       101394.2033
           1.0625       101196.2347       101374.5714       101484.4028       101292.6446       101098.3267       101334.4536       102071.0741       101080.9463       101497.3015       101183.7017       101449.7647       101214.1629       101426.1831
            1.075       101197.2708        101229.275       101482.6056       101465.1324       101117.4999       101093.1664       102043.0719       101153.9317       101459.0286        101204.808       101432.4845       101218.5636       101424.3108
           1.0875       101301.7884        101185.117       101360.1851       101509.5193       101302.1485         101000.38       101611.3243       101331.1266       101330.4082       101315.0031       101340.9343       101305.7845       101345.8767
              1.1       101435.5856       101185.0663       101215.1227       101501.3799       101497.4649        101064.072       100998.8608       101500.5526       101208.6173       101421.9623        101244.211        101400.847       101260.4491
           1.1125        101454.635       101260.5171       101166.7016       101352.9803        101552.876       101314.5519       100587.7535       101568.7635       101152.3722       101466.8696       101200.7544       101436.2412       101223.1689
            1.125       101454.3861       101430.2319       101168.5924       101193.1842       101526.2946        101565.298       100609.1143       101494.7328       101188.7081        101443.736       101214.6882       101430.4397       101227.0597
           1.1375       101338.8775       101466.4305       101279.3119       101143.7621       101344.0742       101651.1673       101037.4076       101319.9747       101320.2412       101335.7608       101308.8675        101343.821       101301.8085
             1.15       101222.5219       101465.6253        101443.656       101145.2168       101162.7348       101576.2654       101661.3979       101152.5543       101443.7846        101230.341       101410.0195       101252.8246       101395.1362
           1.1625       101195.9296       101375.7598       101485.1577       101293.0635       101098.1082       101333.9024       102071.6298       101082.0006       101498.3594       101184.2617       101448.4291       101214.9283       101425.6696
            1.175       101195.4149       101228.5593       101482.3581       101464.9299       101116.6843       101093.7805        102043.108       101153.6648       101457.8754       101203.1462       101433.7365       101217.2562       101424.9778
           1.1875       101304.6624       101184.4233       101360.6872       101509.5189       101303.0284       100999.8537       101612.4748       101328.6324       101331.8634       101313.7231       101341.8053       101306.9391       101345.8201
              1.2        101432.813       101186.1589       101214.6519       101500.4973       101496.4295       101062.5479       100997.3261       101499.0058       101209.8053       101423.6379       101244.7725       101399.5957       101260.9146
           1.2125       101456.2895       101258.8467       101167.2872       101353.9183       101553.8462        101314.886       100589.7663       101568.5178       101153.3141       101465.5211       101203.2513       101436.2423       101223.4951
            1.225        101454.674       101431.2134       101168.4293       101191.9339       101526.0168       101565.6982       100608.2687       101496.8801       101183.9418       101445.0888       101213.8066       101431.0341       101226.3759
           1.2375       101337.3921       101466.5458       101277.5481       101145.5224        101345.034       101651.1126       101038.4842       101322.7483        101319.492       101336.6536       101310.0617        101343.211       101302.3203
             1.25       101224.5459       101464.7692       101448.0747       101144.2559       101162.1997       101578.4773       101661.1943       101146.0554       101448.1493       101226.1454       101410.3657       101253.3445       101394.3191
           1.2625       101194.1197       101377.1821       101479.5757       101295.3708       101098.3316       101331.8418       102073.5467       101085.5286        101502.649       101182.2231        101447.715       101214.1936       101427.0191
            1.275       101195.3935       101226.7665       101484.7938       101463.7199       101116.0778       101094.8018       102040.3179       101154.1305       101455.0949       101206.2526        101434.772       101217.6746       101424.1914
           1.2875       101306.1221       101185.3716       101360.7558       101508.6469       101304.4429       100999.0477       101613.4083       101330.6954       101327.0236       101319.2661       101337.8299       101306.9924       101346.6374
              1.3       101430.0648       101186.5935       101212.2021       101503.9576       101495.0945       101062.1116       100997.5729         101497.29        101213.346       101433.5652       101248.4491       101401.3074       101260.2558
           1.3125       101460.0727        101257.041       101171.0418       101349.6038       101555.6603       101316.1265       100587.9499       101569.9746       101156.5763       101461.4202        101207.318       101434.0047       101223.0867
            1.325       101453.4205       101434.4833       101164.8284       101193.7935       101524.4616       101564.8605       100610.2576        101494.623       101179.0962       101442.9853       101211.6014       101431.7606       101226.3519
           1.3375       101338.6129       101463.1794       101280.3404       101145.6075        101343.555       101650.2584       101038.8921        101323.217       101322.3216        101341.649       101302.9832       101344.1092       101300.6681
             1.35       101223.0978       101468.2695       101446.3188       101140.8884        101164.552       101577.0562       101659.4137       101149.1853       101441.1836       101227.0712        101396.915       101251.8653       101395.0885
           1.3625       101193.6847       101372.3197       101481.4511       101300.0501       101097.2455       101335.5459       102070.2155       101078.8966       101497.6539       101178.6038       101456.3829        101213.821       101427.2137
            1.375       101196.8211       101232.4593       101485.2764       101457.9556       101117.2093       101092.1691       102041.4481        101160.461       101462.8109       101203.9257       101434.4761       101216.1856       101424.4413
           1.3875       101303.8906       101180.3184       101358.5068       101511.6017        101306.597       101000.5161        101614.578       101324.7474       101328.2049       101312.4438       101332.0368       101308.7791       101346.6362
              1.4       101433.1789       101187.8416       101215.7086       101504.0018       101490.3491       101064.3852        100997.232       101499.6252        101209.577       101430.6235       101251.5552       101407.7459       101261.2543
           1.4125       101456.3724       101258.8202       101167.4432       101346.2952       101560.6594       101313.3814       100592.4899        101565.085       101155.2934       101469.8611        101202.433       101431.5179       101221.0522
            1.425       101459.3241       101433.9553       101167.5583       101198.1779       101519.7899       101563.2028       100607.5186       101499.7733       101189.3717       101433.8493       101216.3041       101434.0444       101227.9837
           1.4375       101332.5752       101462.3086       101280.0248       101142.9583       101344.4355       101655.6019       101038.7099        101323.647       101312.8164       101344.0338       101307.2234       101340.0761       101295.6275
             1.45       101225.9831       101470.5028       101443.0725       101142.9091       101169.3206       101570.3795       101661.8356         101152.31       101446.9199       101234.3624       101400.4179       101249.9072       101395.8911