# Probe 0 (-126 0 0)
# Probe 1 (-105 0 0)
# Probe 2 (-84 0 0)
# Probe 3 (-63 0 0)
# Probe 4 (-42 0 0)
# Probe 5 (-21 0 0)
# Probe 6 (0 0 0)
# Probe 7 (21 0 0)
# Probe 8 (42 0 0)
# Probe 9 (63 0 0)
# Probe 10 (84 0 0)
# Probe 11 (105 0 0)
# Probe 12 (126 0 0)
#           Probe                 0                 1                 2                 3                 4                 5                 6                 7                 8                 9                10                11                12
#            Time
            0.005            101325            101325            101325            101325            101325            101325            101325            101325            101325            101325            101325            101325            101325
             0.01            101325            101325            101325            101325            101325            101325            101325            101325            101325            101325            101325            101325            101325
            0.015            101325            101325            101325            101325            101325            101325            101325            101325            101325            101325            101325            101325            101325
             0.02            101325            101325            101325            101325            101325            101325            101325            101325            101325            101325            101325            101325            101325
            0.025            101325            101325            101325            101325            101325            101325            101325            101325            101325            101325            101325            101325            101325
             0.03            101325            101325            101325            101325            101325            101325            101325            101325            101325            101325            101325            101325            101325
            0.035            101325            101325            101325            101325            101325            101325            101325            101325            101325            101325            101325            101325            101325
             0.04            101325            101325            101325            101325            101325            101325            101325            101325            101325            101325            101325            101325            101325
            0.045            101325            101325            101325            101325            101325            101325            101325            101325            101325            101325            101325            101325            101325
             0.05            101325            101325            101325            101325            101325            101325            101325            101325            101325            101325            101325            101325            101325
            0.055            101325            101325            101325            101325            101325            101325            101325            101325            101325            101325            101325            101325            101325
             0.06            101325            101325            101325            101325            101325            101325            101325            101325            101325            101325            101325            101325            101325
            0.065            101325            101325            101325            101325            101325            101325            101325            101325            101325            101325            101325            101325            101325
             0.07            101325            101325            101325            101325            101325            101325            101325            101325            101325            101325            101325            101325            101325
            0.075            101325            101325            101325            101325            101325            101325            101325            101325            101325            101325            101325            101325            101325
             0.08            101325            101325            101325            101325            101325            101325            101325            101325            101325            101325            101325            101325            101325
            0.085            101325            101325            101325            101325            101325            101325            101325            101325            101325            101325            101325            101325            101325
             0.09            101325            101325            101325            101325            101325            101325            101325            101325            101325            101325            101325            101325            101325
            0.095            101325            101325            101325            101325            101325            101325            101325            101325            101325            101325            101325            101325            101325
              0.1            101325            101325            101325            101325            101325            101325            101325            101325            101325            101325            101325            101325            101325
            0.105            101325            101325            101325            101325            101325            101325       101223.0285            101325            101325            101325            101325            101325            101325
             0.11            101325            101325            101325            101325            101325            101325       101001.0392            101325            101325            101325            101325            101325            101325
            0.115            101325            101325            101325            101325            101325            101325       100800.7997            101325            101325            101325            101325            101325            101325
             0.12            101325            101325            101325            101325            101325            101325       100699.8788            101325            101325            101325            101325            101325            101325
            0.125            101325            101325            101325            101325            101325            101325       100709.2135            101325            101325            101325            101325            101325            101325
             0.13            101325            101325            101325            101325            101325            101325       100812.8609       101324.9992            101325            101325            101325            101325            101325
            0.135            101325            101325            101325            101325            101325            101325       100983.0927        101324.941            101325            101325            101325            101325            101325
             0.14            101325            101325            101325            101325            101325       101324.9999       101204.8231       101322.9758            101325            101325            101325            101325            101325
            0.145            101325            101325            101325            101325            101325       101324.9977       101443.7891       101307.0868            101325            101325            101325            101325            101325
             0.15            101325            101325            101325            101325            101325       101324.9595       101700.3007       101263.7851            101325            101325            101325            101325            101325
            0.155            101325            101325            101325            101325            101325       101324.4304       101906.6813       101204.1594            101325            101325            101325            101325            101325
             0.16            101325            101325            101325            101325            101325       101320.4256       102068.5254       101154.7443            101325            101325            101325            101325            101325
            0.165            101325            101325            101325            101325            101325       101304.7921       102123.8416       101136.2258            101325            101325            101325            101325            101325
             0.17            101325            101325            101325            101325            101325       101268.9709       102135.8212        101148.618            101325            101325            101325            101325            101325
            0.175            101325            101325            101325            101325            101325       101213.0166       102061.3189       101180.1265            101325            101325            101325            101325            101325
             0.18            101325            101325            101325            101325            101325       101147.8101       101923.9804        101241.743            101325            101325            101325            101325            101325
            0.185            101325            101325            101325            101325            101325       101096.6266       101715.6626       101312.8676            101325            101325            101325            101325            101325
             0.19            101325            101325            101325            101325            101325       101079.4696       101508.2102       101387.2903       101324.9733            101325            101325            101325            101325
            0.195            101325            101325            101325            101325            101325       101087.3947       101278.0365       101453.3687       101318.5882            101325            101325            101325            101325
              0.2            101325            101325            101325            101325            101325       101113.4119       101025.8333       101509.4427       101285.9159            101325            101325            101325            101325
            0.205            101325            101325            101325            101325            101325       101183.8656       100795.6393       101553.5386       101240.0879            101325            101325            101325            101325
             0.21            101325            101325            101325            101325            101325       101283.0872       100628.2354       101575.5721       101203.2407            101325            101325            101325            101325
            0.215            101325            101325            101325            101325            101325        101388.233       100566.1824       101571.7186         101191.54            101325            101325            101325            101325
             0.22            101325            101325            101325            101325            101325       101488.2201       100552.6885       101547.4026       101195.1121            101325            101325            101325            101325
            0.225            101325            101325            101325            101325            101325       101573.8119       100615.2702       101499.0529       101209.3978            101325            101325            101325            101325
             0.23            101325            101325            101325            101325       101324.9997       101634.5247       100751.0066       101436.1599        101252.436            101325            101325            101325            101325
            0.235            101325            101325            101325            101325       101324.8142       101658.9054       100937.8115       101364.0488       101304.7091            101325            101325            101325            101325
             0.24            101325            101325            101325            101325       101319.0821       101654.0777       101146.1248       101286.6125       101357.2294       101324.9999            101325            101325            101325
            0.245            101325            101325            101325            101325       101292.5236         101633.04       101408.9791        101218.634       101405.6052       101323.7516            101325            101325            101325
             0.25            101325            101325            101325            101325       101246.9329       101582.0823       101657.8645       101161.6022         101449.36       101298.5507            101325            101325            101325
            0.255            101325            101325            101325            101325       101200.3529       101495.0987       101875.8781       101116.9006       101484.8238       101256.4247            101325            101325            101325
             0.26            101325            101325            101325            101325       101169.6796       101394.0984       102045.8844       101092.4744       101501.0689       101227.0485            101325            101325            101325
            0.265            101325            101325            101325            101325       101158.3708       101290.7744       102102.5273       101091.1031       101499.2339       101217.0372            101325            101325            101325
             0.27            101325            101325            101325            101325       101158.6972       101191.7797       102109.7118       101112.8856        101489.506       101217.6855            101325            101325            101325
            0.275            101325            101325            101325            101325       101165.6169       101106.1336       102046.6701       101162.2914       101459.4578       101223.8427            101325            101325            101325
             0.28            101325            101325            101325            101325       101202.1351       101042.3814       101911.0545        101221.673       101414.6326       101256.5777            101325            101325            101325
            0.285            101325            101325            101325            101325       101276.0782       101012.1844        101720.264       101296.3608       101362.9582       101301.3067            101325            101325            101325
             0.29            101325            101325            101325            101325       101358.1827       101012.7018       101512.0977       101373.6706       101308.8265       101344.2686            101325            101325            101325
            0.295            101325            101325            101325            101325       101435.7031        101030.537       101263.0236       101444.5037       101259.2509       101385.0544       101324.8069            101325            101325
              0.3            101325            101325            101325            101325       101499.1505       101074.6303       101010.9509       101500.9456       101215.8654       101424.0058       101307.8994            101325            101325
            0.305            101325            101325            101325            101325       101538.6519       101157.8626       100789.4791       101545.1033        101179.999        101454.079        101267.879            101325            101325
             0.31            101325            101325            101325       101324.9948       101553.8457        101260.766       100622.0773       101564.7979       101160.2711       101466.7571       101241.8833            101325            101325
            0.315            101325            101325            101325       101323.5426       101554.3241       101369.7385       100561.5891       101561.4741       101159.8181       101466.9434       101232.4472            101325            101325
             0.32            101325            101325            101325       101305.1292       101547.9464       101473.2848        100549.022       101538.8335       101168.5587       101462.4036       101231.7521            101325            101325
            0.325            101325            101325            101325       101264.8094       101522.8726       101560.1505       100611.6383       101497.8364       101196.9165       101442.4558       101234.4159            101325            101325
             0.33            101325            101325            101325       101226.7743       101462.6356       101622.1195       100748.6911       101433.9071       101240.9264        101404.601       101257.4709            101325            101325
            0.335            101325            101325            101325       101202.9118       101388.7235       101648.3834        100937.045       101358.2611       101292.3328       101362.1184        101298.274            101325            101325
             0.34            101325            101325            101325       101192.8563       101313.2512       101644.7723       101146.3886       101283.6637        101347.585       101318.3487       101336.1094            101325            101325
            0.345            101325            101325            101325       101191.3316       101239.4309       101624.4858       101398.8581       101214.8905       101398.8285       101277.1898       101373.0317       101324.9633            101325
             0.35            101325            101325            101325       101193.6308       101175.3942       101574.3319        101656.362       101155.6387       101443.3587         101239.09       101408.8714       101314.2084            101325
            0.355            101325            101325            101325       101209.9821       101131.7398       101489.2559       101877.2536       101114.0593       101477.6977       101207.7394       101435.0813       101277.2406            101325
             0.36            101325            101325            101325       101267.6685        101112.055       101390.1885       102041.1221       101087.7337       101494.3776       101192.2599       101446.2652       101252.4964            101325
            0.365            101325            101325            101325       101342.9103       101109.0505       101286.9272       102097.5174       101090.6229       101493.2421       101190.6406        101447.529       101243.1126            101325
             0.37            101325            101325            101325       101411.1774       101113.7802       101187.6006       102107.8719       101114.4264       101484.0927       101194.5136       101445.1807       101241.6502            101325
            0.375            101325            101325            101325       101462.7834       101130.5873       101102.3963       102043.4724       101161.1358       101457.2301       101211.8985       101433.1132       101242.9475            101325
             0.38            101325            101325            101325       101493.9731       101184.9115       101039.1083       101904.9494       101221.7919       101413.0602       101249.0061       101399.5368       101257.3634            101325
            0.385            101325            101325       101324.9992       101507.2892       101262.8116       101008.9479       101715.5735       101292.1902       101360.8601       101291.6219       101362.0433       101294.7958            101325
             0.39            101325            101325       101324.4211       101509.6509       101345.0536       101009.5044       101509.9893       101368.8963       101306.8587       101336.5699       101324.6101       101330.1749            101325
            0.395            101325            101325       101311.9724       101507.1483       101424.0299       101027.4665       101261.9473       101438.9026       101256.2357       101379.6862       101287.9954       101364.8531       101324.9931
              0.4            101325            101325       101277.9094       101495.9798       101489.2085       101072.4278       101004.9982       101502.1443       101212.5015       101418.8898       101252.7928       101398.1601       101318.2229
            0.405            101325            101325       101244.4121       101452.8513       101530.2317       101156.6245        100785.417        101541.675       101177.1206       101448.6604       101225.0567        101421.783       101284.8918
             0.41            101325            101325       101223.2166       101389.4337       101546.4278       101259.0702       100623.2846       101561.3511       101157.1959        101461.576       101211.5625        101432.256       101260.6895
            0.415            101325            101325       101213.4866        101323.334       101547.3741       101367.3322       100563.3935       101563.3303       101157.1253       101462.0319       101209.1097        101434.225       101251.1057
             0.42            101325            101325       101211.0225       101260.5098       101541.3272       101471.4237       100548.8231       101538.3577       101166.9688       101457.8738        101211.031       101432.9322       101249.0756
            0.425            101325            101325        101211.885       101208.4521       101517.5675       101558.7746       100609.5557       101489.1479       101196.5939        101440.539       101220.4188       101426.5175       101249.7706
             0.43            101325            101325       101218.4555       101173.6212       101458.7734       101620.2989       100746.9817       101431.7998       101238.9283       101403.5206       101252.6633       101397.2868       101257.6955
            0.435            101325            101325       101260.4178       101156.5062       101385.5815       101646.1732       100936.1567       101360.5201        101290.311       101360.7402       101290.6576       101362.6649       101291.0666
             0.44            101325            101325       101330.2293       101151.7268       101310.3407        101642.558       101145.6114       101280.7583       101346.5199       101316.5648       101329.4723       101329.2887       101325.5523
            0.445            101325            101325       101393.6329       101152.9319       101236.6595       101622.4011         101398.08       101212.8603       101398.0493        101274.809       101368.2493       101295.4309       101358.8459
             0.45            101325            101325       101439.3266       101158.7823       101172.7754       101572.2244       101656.0881        101155.415       101441.6776       101236.4938       101404.4203        101262.484       101390.0579
            0.455            101325            101325       101466.7561       101192.1804       101129.2408       101487.1346       101876.9346       101108.2831       101476.5968        101205.143       101430.5395       101237.3158       101411.8488
             0.46            101325       101324.9998       101479.4107       101259.0633       101109.6407        101388.474       102040.0311       101086.8335       101495.5067       101189.9018       101441.8563       101224.8323       101421.9035
            0.465            101325       101324.7206         101482.85        101333.472       101106.7255       101285.1689       102095.6568       101090.6311       101494.4658       101188.6616        101443.311        101221.768       101424.3663
             0.47            101325       101316.0765       101482.0156       101401.7118       101111.5589       101185.2959       102106.1898       101114.5167       101481.5868       101192.9539       101441.1569       101222.6678       101423.7359
            0.475            101325       101287.5683       101477.5463       101454.5804       101128.8679       101100.4747       102042.9498       101159.8228       101451.8066       101211.7794       101431.2085        101227.109       101420.5564
             0.48            101325       101257.3973       101449.1101         101487.01       101183.7494       101038.6421       101905.0827       101219.6334       101411.5687       101247.6179       101398.8341       101253.7187       101396.6347
            0.485            101325        101237.565       101392.4866       101501.0883       101261.5441       101009.3538       101715.1851       101289.6308       101361.6507       101290.1415       101360.9748       101289.1974       101363.7337
             0.49            101325       101227.7856       101330.8443       101503.8224       101343.6922       101009.9074       101508.5697       101368.9602       101306.7527       101335.8717       101323.0731       101324.2811       101332.8325
            0.495            101325       101224.6286       101274.6173        101501.537       101422.7627       101027.5868       101260.6612       101443.7655       101256.4729       101378.7392       101286.0167       101360.4074        101300.906
              0.5            101325        101224.712       101229.5574       101491.3493       101487.9225        101071.487       101005.3924        101498.677       101212.5178       101417.4852       101250.5281       101394.1533       101269.8407
            0.505            101325       101227.4183       101199.2069       101449.8586       101528.7835       101155.3377       100785.9144       101542.8624       101176.8368       101448.5239       101222.7918       101417.7719       101246.5342
             0.51            101325       101255.6445       101183.1577       101387.0157       101544.8497       101258.2619       100622.1512       101565.3364       101157.2686       101462.3959       101209.6179        101428.348       101234.6631
            0.515            101325        101318.582       101177.3591       101320.9965       101545.7653       101366.9738       100561.4893       101558.6992       101156.4184       101462.5174       101207.4892        101430.482       101231.1631
             0.52            101325       101379.0675       101176.9807       101258.1841       101539.7338       101471.2973       100547.9015       101532.8144       101167.9534       101457.0846         101209.59       101429.3379       101231.3852
            0.525            101325       101421.9095       101179.1789       101206.1999       101516.0392       101558.5729        100609.359       101492.4696       101197.6178       101435.8502        101220.107       101424.3098       101233.4769
             0.53            101325       101447.5983       101196.5563       101171.5151       101457.4019       101619.7789       100746.7185       101431.7234       101237.0831       101402.1506        101251.812       101396.9024       101253.4412
            0.535       101324.9862       101460.1389       101253.0978       101154.5514        101384.143       101645.4212       100935.3725       101359.5066       101289.1295       101361.0476       101289.5722       101361.8259       101287.3439
             0.54       101322.8466       101464.3921       101323.8615        101149.886       101308.6671        101641.774       101144.9625       101283.8469       101345.2742       101316.7844       101328.7673       101327.9618       101320.3784
            0.545       101305.3108       101464.5551       101386.1602       101151.1707       101235.0661       101621.7193       101397.8049       101212.9251       101396.8891       101274.7908       101367.1774       101293.6814       101354.6231
             0.55       101276.7072        101462.681       101432.2339       101157.1948       101171.7757       101571.9381       101655.1912       101155.2888       101441.1379       101236.4524       101403.4755       101260.4331       101386.3437
            0.555       101254.0457       101446.1708       101460.5437        101191.079       101128.9205       101486.9408       101875.8722       101110.1365       101476.5625       101204.9642       101430.6595        101235.309       101408.2013
             0.56       101240.9793       101397.0521       101473.9084        101258.045       101109.6741       101387.9493       102039.7243       101087.1407       101495.0231       101189.4246       101442.3748       101223.1388        101418.356
            0.565       101235.3296       101338.1288       101477.7701       101332.4409       101106.8316       101284.5713       102096.0515        101091.254       101494.5601       101188.4614       101443.5789       101220.3517       101420.9651
             0.57       101234.0296       101285.7386       101477.1663       101400.7238       101111.6165       101185.0979       102106.2411       101115.4141       101481.0384        101193.341       101441.0333       101221.3888       101420.4713
            0.575        101234.625       101244.8437        101473.217       101453.5257       101128.4783       101100.4842       102042.5638       101156.6746       101453.0465       101213.0219       101427.4323       101226.4015       101418.0083
             0.58       101242.2708       101217.0685         101446.52        101485.808       101182.8089        101038.313       101904.6825       101217.8921       101411.4691       101246.6667       101396.8856       101253.2911       101396.4536