# Probe 0 (-126 0 0)
# Probe 1 (-105 0 0)
# Probe 2 (-84 0 0)
# Probe 3 (-63 0 0)
# Probe 4 (-42 0 0)
# Probe 5 (-21 0 0)
# Probe 6 (0 0 0)
# Probe 7 (21 0 0)
# Probe 8 (42 0 0)
# Probe 9 (63 0 0)
# Probe 10 (84 0 0)
# Probe 11 (105 0 0)
# Probe 12 (126 0 0)
#           Probe                 0                 1                 2                 3                 4                 5                 6                 7                 8                 9                10                11                12
#            Time
             0.01            101325            101325            101325            101325            101325            101325            101325            101325            101325            101325            101325            101325            101325
             0.02            101325            101325            101325            101325            101325            101325            101325            101325            101325            101325            101325            101325            101325
             0.03            101325            101325            101325            101325            101325            101325            101325            101325            101325            101325            101325            101325            101325
             0.04            101325            101325            101325            101325            101325            101325            101325            101325            101325            101325            101325            101325            101325
             0.05            101325            101325            101325            101325            101325            101325            101325            101325            101325            101325            101325            101325            101325
             0.06            101325            101325            101325            101325            101325            101325            101325            101325            101325            101325            101325            101325            101325
             0.07            101325            101325            101325            101325            101325            101325            101325            101325            101325            101325            101325            101325            101325
             0.08            101325            101325            101325            101325            101325            101325            101325            101325            101325            101325            101325            101325            101325
             0.09            101325            101325            101325            101325            101325            101325            101325            101325            101325            101325            101325            101325            101325
              0.1            101325            101325            101325            101325            101325            101325            101325            101325            101325            101325            101325            101325            101325
             0.11            101325            101325            101325            101325            101325            101325       100998.6476            101325            101325            101325            101325            101325            101325
             0.12            101325            101325            101325            101325            101325            101325       100697.1661            101325            101325            101325            101325            101325            101325
             0.13            101325            101325            101325            101325            101325            101325       100813.6888       101324.9997            101325            101325            101325            101325            101325
             0.14            101325            101325            101325            101325            101325       101324.9999       101207.9182       101323.8053            101325            101325            101325            101325            101325
             0.15            101325            101325            101325            101325            101325       101324.9791       101704.1553       101265.3354            101325            101325            101325            101325            101325
             0.16            101325            101325            101325            101325            101325       101321.5834       102072.0286       101151.1089            101325            101325            101325            101325            101325
             0.17            101325            101325            101325            101325            101325        101271.716       102137.3894       101146.2036            101325            101325            101325            101325            101325
             0.18            101325            101325            101325            101325            101325       101145.8587       101922.6954       101241.7726            101325            101325            101325            101325            101325
             0.19            101325            101325            101325            101325            101325       101074.8343       101505.2226       101389.1938       101324.9999            101325            101325            101325            101325
              0.2            101325            101325            101325            101325            101325       101108.6372       101021.3903       101511.1224       101290.4198            101325            101325            101325            101325
             0.21            101325            101325            101325            101325            101325        101283.141       100624.7549       101578.4171       101198.2183            101325            101325            101325            101325
             0.22            101325            101325            101325            101325            101325       101491.4582       100551.3575       101549.1404         101191.92            101325            101325            101325            101325
             0.23            101325            101325            101325            101325            101325       101639.8283        100752.209       101436.4159       101250.8711            101325            101325            101325            101325
             0.24            101325            101325            101325            101325       101322.9046       101657.9234       101148.6273       101284.4682       101358.8461            101325            101325            101325            101325
             0.25            101325            101325            101325            101325       101248.6801       101585.8424       101662.3769       101160.0162       101451.5708       101309.4527            101325            101325            101325
             0.26            101325            101325            101325            101325       101164.5238       101393.2786       102049.7989        101089.639        101504.709       101221.3136            101325            101325            101325
             0.27            101325            101325            101325            101325       101153.4074       101188.7342       102110.2935       101110.8765       101492.5004       101214.2254            101325            101325            101325
             0.28            101325            101325            101325            101325          101193.8       101037.2738       101909.9042       101220.7407       101415.6544       101252.1747            101325            101325            101325
             0.29            101325            101325            101325            101325       101360.0639       101008.6692       101508.9319        101375.111        101306.872       101345.6458            101325            101325            101325
              0.3            101325            101325            101325            101325       101505.8592       101070.6807       101007.1026       101502.5343       101213.8495       101427.0965       101319.1083            101325            101325
             0.31            101325            101325            101325            101325       101559.2214        101260.886       100618.0486       101567.3602       101156.3757       101470.6385       101235.9807            101325            101325
             0.32            101325            101325            101325       101314.1788       101553.0264       101476.9251       100548.1947         101540.02       101165.4525       101465.5898       101228.1744            101325            101325
             0.33            101325            101325            101325       101223.7624       101466.9936       101627.3112       100750.0401        101434.413       101239.7345       101406.2077       101249.3147            101325            101325
             0.34            101325            101325            101325       101187.3093       101311.6351       101648.7808       101149.5892        101282.339       101349.2621       101316.6723       101337.2288            101325            101325
             0.35            101325            101325            101325       101187.7373       101169.3022       101577.8872       101660.6983        101153.388       101445.8996       101236.6738       101413.0838       101322.7346            101325
             0.36            101325            101325            101325       101258.8599       101106.4887       101389.7049       102044.9178       101084.1476       101497.9685       101188.0088       101450.3317       101246.9701            101325
             0.37            101325            101325            101325        101417.857       101108.7859       101184.4801       102108.8326       101113.0712       101486.6019       101191.1841        101448.256       101238.0009            101325
             0.38            101325            101325            101325       101501.2493        101178.531       101034.0072       101903.5357       101221.2734       101414.3701        101247.139       101402.6027       101247.6201            101325
             0.39            101325            101325       101324.9608       101515.1809       101347.0678       101005.4514       101506.9547       101370.0107       101305.5162       101337.8742       101323.3417       101330.9258            101325
              0.4            101325            101325       101284.9317       101503.9195       101496.0273       101068.5055       101000.5697       101504.6948       101210.3512       101422.2536       101249.5026       101403.3551       101324.1712
             0.41            101325            101325       101218.1892       101392.2776       101551.9748       101259.3068       100619.6566        101564.589       101153.0425       101465.4039       101207.0981       101436.5034       101255.7483
             0.42            101325            101325        101205.286       101255.2037       101546.4679       101474.9343        100547.974       101539.1132       101164.1938       101460.6827       101207.7026       101436.0591       101245.3692
             0.43            101325            101325        101209.484       101166.3658       101463.1603       101625.5561       100748.1471       101432.6476       101237.4383        101405.481       101249.0237       101403.4463        101249.126
             0.44            101325            101325        101328.229       101146.2567       101308.8407        101646.483       101148.8254       101279.3391       101348.3252       101315.0991       101330.2174       101328.5347       101325.6753
             0.45            101325            101325        101448.568       101151.8575       101166.6652       101575.8981       101660.5339       101153.8829       101443.6358       101233.9264       101408.9497       101258.2615       101396.1135
             0.46            101325            101325       101485.8688       101253.7108       101104.0894       101388.0818       102043.8734       101083.7464       101499.7602       101185.5537       101445.8294       101220.1693       101426.3289
             0.47            101325       101322.1575       101488.0126        101408.487       101106.5288       101181.9979       102106.9346       101112.9682       101483.7622       101189.5773       101443.9362        101219.304       101426.8581
             0.48            101325       101257.3389        101461.691        101494.436        101177.574       101033.5782        101903.913       101219.1064       101412.9766       101245.4569       101402.8185       101246.5953       101406.3879
             0.49            101325       101222.3001       101328.8609       101509.4318       101345.5863       101006.1204       101505.3614       101370.3362         101305.02       101337.6867       101321.8755       101324.4768       101332.5109
              0.5            101325       101218.6393       101221.3822       101499.2072       101494.7988       101067.3306        101001.117       101500.0305       101210.5082       101420.1177       101247.0202       101399.7662       101264.7753
             0.51            101325       101240.1221       101176.5547       101389.9181       101550.3215       101258.4842       100618.5334       101568.3775       101153.1134       101466.7722       101205.0886       101432.4864        101229.797
             0.52            101325       101385.4628       101171.1356       101252.9396       101544.8295       101474.9095       100547.0397       101533.9393        101165.684       101460.4856       101206.2374       101432.1755       101228.0622
             0.53            101325        101456.069       101184.1696       101164.3288       101461.9803       101625.0313       100747.9565       101432.3841       101235.0142       101404.4098       101248.2824       101404.5351       101243.0304
             0.54       101324.7566        101470.651       101325.0804       101144.3551       101307.0591       101645.5903       101148.1486       101282.6235       101347.0821       101315.1929       101330.0737       101327.2026       101320.2228
             0.55       101281.0971       101469.3771       101441.5584       101150.2088       101165.5368       101575.7405       101659.5755       101153.4432       101443.2452       101233.9552        101407.318        101255.949       101392.8776
             0.56       101235.9897       101408.4214       101480.5377       101252.7816       101104.3245       101387.5191       102043.5462       101084.1028       101499.3428       101184.9147       101446.8757       101218.4236       101422.6757
             0.57       101228.0019       101278.4957       101483.2379       101407.5029       101106.7857       101181.7948       102107.0435       101114.0892       101483.2068       101190.0386       101444.5487       101217.9908       101423.2879
             0.58       101231.6218       101208.7209       101458.8992       101493.1889       101176.2614       101033.3478       101903.4674       101217.3281       101412.7637       101243.8857       101399.6632       101246.5841       101407.3619
             0.59       101346.4083       101188.9168       101326.9631       101508.0817       101345.3749       101005.1627       101505.2121       101370.2311       101306.1393       101336.8886       101322.1576       101324.0785       101331.3099
              0.6       101435.0682       101188.4861        101219.459       101498.0097       101494.5955       101066.8041       101001.0881       101499.7171       101211.6802       101419.6736       101247.0516       101398.5365       101262.6119
             0.61       101456.6443       101231.1404       101174.9248       101388.6792        101549.757       101258.1982       100618.7057       101567.2356       101149.0168       101466.6432       101204.6686       101433.3495       101228.2424
             0.62       101458.0456       101381.3884       101169.5689       101251.5578        101544.299       101474.3307       100546.9605       101534.5677       101167.8304       101459.9032       101206.2819       101432.7621       101226.8676
             0.63       101436.9925       101450.7104       101182.7463        101164.133       101461.8298       101624.5998       100748.1111       101432.3922       101235.3835       101404.7947        101247.892       101398.8377       101242.9913
             0.64       101308.0729       101466.2137       101324.5488       101144.5381        101306.765       101645.6567       101148.2335       101281.9479       101348.5052       101314.8212       101329.4116       101327.8421       101319.6076
             0.65       101229.3276        101465.168       101440.5744       101150.2107       101165.5065       101575.5791       101659.2817       101153.3602       101443.5727       101233.9134       101406.7175       101255.8408       101391.9212
             0.66       101202.9923       101406.9231         101479.36       101251.8461       101103.7629       101387.2415       102042.9658        101083.784       101497.4304       101183.9376       101446.7464       101218.1207       101423.4272
             0.67       101199.6511       101276.7913        101482.073       101407.3676        101106.091       101181.7721       102106.5422       101115.3154       101481.5595       101190.2241       101444.2413       101218.0327       101423.8854
             0.68       101209.9466       101207.2467       101458.0342       101492.8602       101176.0207       101033.4227        101903.226       101216.6969       101414.7413       101243.1768       101399.8956       101247.3757       101401.2705
             0.69       101345.5871       101187.3346       101325.6729       101507.6528       101345.0061       101005.1783       101504.7834       101370.4121        101305.715        101336.681        101321.753       101323.3729       101332.2471
              0.7       101430.4346       101187.0174       101218.7197       101497.6296       101494.1515       101066.8041       101000.6907       101499.8277       101210.3929       101419.5054       101247.3531       101398.1033       101262.3981
             0.71       101452.4756        101230.564        101175.016       101388.5361       101549.6791       101258.3558       100618.3584       101567.4577       101151.5601        101466.965       101203.9967       101433.1847        101228.014
             0.72        101454.118       101380.7326       101169.6869       101251.5781         101544.28       101474.1997       100547.0351       101533.9393       101167.4298       101459.4783       101205.9357       101432.4941       101226.9111
             0.73       101434.6365       101449.7115       101182.4212       101163.8025       101461.5804       101624.2871       100747.8196       101432.8517       101235.2756       101404.8973       101247.6244        101398.891       101243.9224
             0.74       101306.8338       101465.1369       101323.9474       101143.9981       101306.6663       101645.1627       101148.3157       101281.4795       101347.8855       101314.5236       101329.3748       101327.4598       101318.8214
             0.75       101227.8613       101464.1733       101440.4543       101149.7396       101165.5476       101575.2687       101659.3921       101152.8559       101442.2503       101233.8337         101406.09       101255.9776       101391.6203
             0.76       101201.5835       101406.0488       101478.9911       101251.6572       101103.7664       101387.0135       102043.0704       101083.4499       101500.2792       101184.0217       101447.2589       101217.6348       101423.2416
             0.77       101198.2455       101275.7319       101481.6629        101406.923       101106.1197       101181.4764       102106.6959       101114.8168       101483.0044       101190.8717       101444.4827       101217.7383       101423.6343
             0.78       101208.9604       101207.0225       101457.8412       101492.6386       101176.1346       101033.1022       101903.3672       101216.3699       101412.3479       101242.6225       101400.0819       101247.7092       101401.3142
             0.79       101345.2186       101187.4986       101325.7221       101507.6186       101345.0449       101005.0652       101504.6729       101370.1809       101303.9107       101336.4781       101321.5317       101323.4546       101331.9862
              0.8       101429.4766       101187.1023       101218.6186       101497.6349       101493.9676       101066.7931       101000.7755       101499.6807       101208.1794       101419.6162       101247.4739        101397.511       101262.4177
             0.81       101451.5483       101229.6544       101174.6212       101388.3142       101549.3274       101258.2636        100618.235       101567.6662       101153.5225       101466.5821       101203.6629       101433.5655       101227.6341
             0.82       101453.2284       101380.5562       101169.2229       101251.5566       101543.9374       101474.2873       100546.6939        101534.124       101167.3513       101459.2786       101205.8506       101432.7655       101226.6422
             0.83       101433.7984       101449.4006       101182.1459       101163.8378       101461.4118       101624.3531       100747.4842        101432.847       101234.6758       101404.2198       101247.1364       101398.2536       101244.3287
             0.84       101305.7654        101464.805       101323.5148       101144.0412       101306.4308       101645.2604       101148.0734       101281.7325       101346.9023       101315.1328       101329.2874       101327.1726       101318.8371
             0.85       101227.5985       101463.8727       101440.1281        101149.763        101165.229        101575.428       101659.1414       101153.0077       101443.4093       101233.5724       101406.0488       101256.0983       101391.1825
             0.86       101201.6308       101406.0728       101478.9905       101251.7562       101103.6485       101386.9825       102042.8771       101083.3924       101497.0277       101185.2875       101447.2798       101217.5274       101423.4305
             0.87       101198.2982       101275.7925        101481.651       101406.9089       101106.0318       101181.5535       102106.5929        101114.662       101482.4436       101191.2608       101444.5299        101217.676       101424.0126
             0.88       101208.7143       101206.7361       101457.6048        101492.427       101176.0148       101033.0569       101903.4007       101216.4873       101413.4509       101242.7874       101400.3229       101247.7708        101400.166
             0.89       101344.7374       101187.1177       101325.7274       101507.3145       101345.1348       101004.8935        101504.836       101369.9124       101304.0608       101336.3428       101321.6774       101323.6921       101331.8023
              0.9       101429.2595       101186.7584       101218.6818       101497.1871       101494.0198       101066.6231       101000.8284       101499.3487       101209.0614       101420.1392       101246.9971       101397.0867       101262.8715
             0.91       101451.2521       101229.2757        101174.557       101388.2258       101549.4522       101257.9972       100618.3172       101567.5603       101154.2276       101465.4572       101203.6162       101433.5873       101227.2233
             0.92       101452.9316       101380.2368       101169.3457        101251.465       101544.2633       101473.9889       100546.9153       101533.7547       101166.0126       101459.1386       101205.6823       101432.8297       101226.5559
             0.93       101433.7688        101449.332       101181.9165       101163.4506       101461.2893       101624.2177       100747.4932        101432.548       101235.7042       101403.6639       101246.7288       101397.9847       101244.6591
             0.94       101305.8207       101464.6819       101323.7726       101144.4163       101306.3748         101645.17       101147.9688       101281.7622       101347.0639       101315.0285       101329.0629        101327.153       101318.7779
             0.95       101227.4158       101463.9105       101440.2633       101149.6477       101165.3798       101575.2358       101659.2008       101152.9603        101444.203       101233.3584       101406.6378       101256.3713       101390.6094
             0.96        101201.318       101405.9524       101478.4143       101251.4191       101103.3759       101387.1053       102042.7372       101083.5401       101496.4322       101185.5211       101446.6487       101217.4074       101423.5415
             0.97       101197.9409       101275.3734       101482.1488       101407.1399       101105.5804       101181.6259       102106.2787       101114.8836       101482.9128       101190.8391       101444.8937       101217.3719       101423.9184
             0.98       101208.2512        101207.397       101457.1144       101492.4218       101176.0389        101033.116       101903.3122       101216.5232       101412.9153       101244.4227       101400.1355       101247.7004       101399.8701
             0.99       101344.5963       101186.6408       101324.8501       101506.9732       101344.9876       101005.0905       101504.7071       101370.0817       101303.9027       101337.0329       101321.7328       101323.4551       101331.7845
                1       101428.7465       101187.4091       101218.9965       101497.5026       101493.7096       101066.6946       101000.4827       101499.5515       101208.7362       101420.3742       101246.5379       101397.2972       101263.0334
             1.01       101451.1457       101230.0149       101174.1662        101388.569       101549.3955       101257.9488       100618.2541       101567.3478       101153.8148       101464.0862       101203.8226       101433.4546       101227.2374
             1.02       101453.5251       101378.8835       101168.5749       101251.1306       101544.2043       101473.9755         100546.88       101533.8759       101166.3655       101459.6361       101205.5658       101433.1408       101226.6429
             1.03       101433.0152       101449.6475       101182.5386       101163.5982       101461.3264       101624.2674       100747.5679       101432.6513       101235.5462       101403.1178       101246.6476         101398.12       101244.5929
             1.04       101307.1794       101464.4878       101324.2469        101144.262        101306.396       101644.9149       101148.0535       101281.3681       101347.5578        101313.508       101328.8213       101327.0494       101318.7701
             1.05       101227.1057       101462.7545       101439.4635       101149.4107       101165.3832        101575.049       101659.2672        101152.768       101444.1624       101231.5329       101406.9368       101256.3717       101390.4694
             1.06       101199.9412       101405.5135       101479.0462       101251.1922       101103.6039       101387.0263       102042.8961       101083.4154       101496.6549       101185.9989       101446.4968       101217.3005       101423.5305
             1.07       101199.0897       101277.0332       101482.2721       101406.9487       101105.6484       101181.4426       102106.4543       101114.8091        101483.336       101190.7511       101445.1593       101216.8956       101423.9108
             1.08       101207.6003       101205.8176       101456.8869       101492.3524       101176.1067       101032.8933       101903.2492       101216.2454       101412.7271       101242.9242       101399.6323       101248.2365       101399.7234
             1.09       101343.3799       101187.1438       101325.1013       101506.9522       101344.8997       101005.0937       101504.6368       101369.9878        101303.321       101337.5834       101322.1376       101323.1787       101331.6542
              1.1       101430.0902       101187.4851       101218.9099       101497.3738       101493.8646       101066.7766       101000.5913       101499.5395       101208.9703        101420.659       101246.1446       101397.5037       101263.3881
             1.11       101450.6655       101229.1078       101173.5372       101388.7114       101549.3691       101257.9558       100618.2323       101567.6967       101154.0708       101465.2026       101204.5778       101433.4389       101226.9988
             1.12       101453.6114       101379.6133       101169.1602       101250.7587       101543.9471       101474.0739       100546.7324       101534.0274       101165.7757       101459.2931       101204.8231       101433.3357       101226.4742
             1.13       101432.4335       101449.2414       101181.8533       101163.7821       101461.2273       101624.5253       100747.4021       101432.4978       101235.6269       101403.6943       101246.5744       101397.9298       101245.2072
             1.14       101307.0797        101465.002       101324.2479       101144.5954       101305.9722       101644.8205       101148.0185       101281.4266       101347.6492         101314.26       101328.8664       101327.2641       101318.3511
             1.15       101227.4359       101462.8651       101439.6172       101149.2578       101165.3301       101575.4502       101658.9659       101152.9431       101443.3806       101231.3219       101407.6319       101255.6294       101390.8353
             1.16       101200.0513       101405.4841       101478.8088       101251.2965       101103.5217       101386.5917       102043.2121       101083.3839       101496.8652       101186.8651       101446.0998       101217.8571       101423.2079