# Probe 0 (-126 0 0)
# Probe 1 (-105 0 0)
# Probe 2 (-84 0 0)
# Probe 3 (-63 0 0)
# Probe 4 (-42 0 0)
# Probe 5 (-21 0 0)
# Probe 6 (0 0 0)
# Probe 7 (21 0 0)
# Probe 8 (42 0 0)
# Probe 9 (63 0 0)
# Probe 10 (84 0 0)
# Probe 11 (105 0 0)
# Probe 12 (126 0 0)
#           Probe                 0                 1                 2                 3                 4                 5                 6                 7                 8                 9                10                11                12
#            Time
           0.0125            101325            101325            101325            101325            101325            101325            101325            101325            101325            101325            101325            101325            101325
            0.025            101325            101325            101325            101325            101325            101325            101325            101325            101325            101325            101325            101325            101325
           0.0375            101325            101325            101325            101325            101325            101325            101325            101325            101325            101325            101325            101325            101325
             0.05            101325            101325            101325            101325            101325            101325            101325            101325            101325            101325            101325            101325            101325
           0.0625            101325            101325            101325            101325            101325            101325            101325            101325            101325            101325            101325            101325            101325
            0.075            101325            101325            101325            101325            101325            101325            101325            101325            101325            101325            101325            101325            101325
           0.0875            101325            101325            101325            101325            101325            101325            101325            101325            101325            101325            101325            101325            101325
              0.1            101325            101325            101325            101325            101325            101325            101325            101325            101325            101325            101325            101325            101325
           0.1125            101325            101325            101325            101325            101325            101325       100886.6419            101325            101325            101325            101325            101325            101325
            0.125            101325            101325            101325            101325            101325            101325       100707.6506            101325            101325            101325            101325            101325            101325
           0.1375            101325            101325            101325            101325            101325            101325       101093.0113       101324.8796            101325            101325            101325            101325            101325
             0.15            101325            101325            101325            101325            101325       101324.9848       101706.0051       101266.0204            101325            101325            101325            101325            101325
           0.1625            101325            101325            101325            101325            101325       101317.4241       102105.0525       101135.2584            101325            101325            101325            101325            101325
            0.175            101325            101325            101325            101325            101325       101214.5653       102060.7236       101177.2909            101325            101325            101325            101325            101325
           0.1875            101325            101325            101325            101325            101325       101076.9335       101604.8692       101351.7699            101325            101325            101325            101325            101325
              0.2            101325            101325            101325            101325            101325       101106.5378       101019.2554       101511.8125       101293.6857            101325            101325            101325            101325
           0.2125            101325            101325            101325            101325            101325       101337.3787       100591.1441       101580.5236       101187.8286            101325            101325            101325            101325
            0.225            101325            101325            101325            101325            101325       101580.5455       100616.0261       101499.7544       101203.0647            101325            101325            101325            101325
           0.2375            101325            101325            101325            101325       101324.9186       101664.6766        101036.922       101323.3618       101333.0653            101325            101325            101325            101325
             0.25            101325            101325            101325            101325       101249.8516       101587.4856       101664.5048       101159.3754       101452.5054       101315.0479            101325            101325            101325
           0.2625            101325            101325            101325            101325       101154.3568        101340.257       102081.0674       101084.7726        101505.991       101212.9714            101325            101325            101325
            0.275            101325            101325            101325            101325       101156.8085       101099.8032       102046.7794        101162.471       101462.8286        101217.027            101325            101325            101325
           0.2875            101325            101325            101325            101325       101317.0494       101003.6964       101617.8099       101337.1634       101333.7752       101325.4328            101325            101325            101325
              0.3            101325            101325            101325            101325       101508.9668       101068.9686       101005.3008       101503.0973       101213.0415       101428.5223       101322.2288            101325            101325
           0.3125            101325            101325            101325       101324.9992       101562.3345       101316.7751       100587.1493       101569.1062       101153.3293       101472.3563       101228.2408            101325            101325
            0.325            101325            101325            101325       101272.9794       101532.9839       101566.9363       100611.5837       101500.1969       101193.9158       101449.9465       101228.9163            101325            101325
           0.3375            101325            101325            101325       101188.3651       101349.8445       101655.0731       101039.6228       101317.5611       101321.3337       101338.3512       101320.2085            101325            101325
             0.35            101325            101325            101325       101185.2396       101166.4519        101579.414       101662.7517       101152.4121       101446.9763       101235.7137       101415.2375       101324.1672            101325
           0.3625            101325            101325            101325       101299.4438        101101.814       101337.0548       102072.9289       101081.8636       101499.6015       101185.0939       101452.3739       101239.0856            101325
            0.375            101325            101325            101325       101474.7205       101120.6762       101096.0499       102043.6473       101159.4374       101461.7384       101204.8677       101443.2562       101237.8841            101325
           0.3875            101325            101325       101324.9999       101517.4289       101304.7607       101000.4548       101613.7744       101331.5735       101332.3161       101315.1405       101341.2302       101314.1157            101325
              0.4            101325            101325       101288.9665        101507.224        101499.192        101066.797       100998.4334       101505.8232       101209.4801       101423.7646       101248.0186       101406.1584       101324.7733
           0.4125            101325            101325       101209.2995        101356.662       101555.4192       101314.3985       100590.4943       101569.0489       101150.1254       101467.1485       101204.0709        101438.763       101247.4328
            0.425            101325            101325       101203.3545       101197.5612       101527.4228       101565.9215       100609.1598       101490.2045       101193.6169       101448.7641       101211.3866       101434.8243       101244.7589
           0.4375            101325            101325        101280.329        101144.958       101347.1055       101652.6501        101039.033       101319.4241       101319.7161       101337.0848       101311.0019       101343.6787        101306.418
             0.45            101325            101325       101453.0477       101149.0522       101163.8111       101577.4981       101662.6399       101153.2908       101444.3038       101232.8968       101411.2104       101256.1473       101399.4831
           0.4625            101325            101325       101490.3786       101294.8262       101099.4035       101335.7491       102071.2682       101082.8999       101502.2815       101182.8588       101447.8259       101217.0157       101428.7278
            0.475            101325       101300.1068       101487.7935       101466.6412       101118.9866       101093.5485       102043.4641        101158.487       101454.6697       101205.7643       101440.5581        101220.097       101426.4349
           0.4875            101325       101224.2141       101364.3507       101511.5867        101303.196       101001.3971       101612.8344       101329.8621       101333.0668        101314.503       101339.9719       101307.5165       101346.5295
              0.5            101325       101216.1598       101217.4487       101502.4837        101497.996       101065.4786       100999.0843       101500.4737       101209.7549        101421.095       101245.3991       101402.7727       101262.0493
           0.5125            101325       101264.6767       101170.5508       101354.2395       101553.7049        101313.913       100588.3963       101569.0074       101149.4041       101468.8897       101202.2363       101434.6779        101226.556
            0.525            101325       101436.1336       101170.5847        101195.557       101525.9677       101565.8822       100609.0255       101494.0181       101194.6878       101440.1038       101211.1275       101431.0648       101228.1991
           0.5375       101324.9988       101472.0071       101280.8673       101142.9475         101345.57       101651.6577       101038.1229       101321.3005        101319.002       101337.4462       101310.7936       101342.6033        101303.588
             0.55       101283.9798       101471.8741       101446.0398       101147.4427       101162.6219       101577.3748       101661.6786       101152.6747       101444.0445       101233.0007       101409.0496       101253.6448       101396.5343
           0.5625       101229.6745       101376.2919        101485.412       101293.7064       101099.8375        101334.871       102071.7058       101082.1627        101501.983       101182.2676       101449.2327       101215.4234       101424.9953
            0.575       101225.7513       101231.2626       101483.2624       101465.6801       101118.6352       101093.7863       102042.9458        101154.913        101456.695       101208.4019       101435.1758       101218.8999       101422.7819
           0.5875       101303.7952       101188.3131        101362.677       101510.1596       101302.7023        101000.367       101612.6282       101331.0954       101333.2682       101313.7414       101340.9858       101307.5424       101346.0365
              0.6       101439.2591       101186.0329       101215.4535       101501.3364       101497.8585       101064.9584       100999.0797       101500.4581       101210.8868       101420.7399       101245.5241       101401.0691       101259.6875
           0.6125       101460.3416       101264.1778       101169.0212        101352.788       101553.0718       101313.5651       100588.5497       101568.4911        101147.957       101468.8227       101201.8865       101435.8896        101225.148
            0.625       101459.2837       101430.7314       101168.8832       101194.6761        101525.754       101565.1269       100608.9233       101494.2935       101192.8774       101439.9144       101213.2541       101430.8651       101227.0502
           0.6375       101340.2022       101467.5336       101280.5181       101143.2453       101345.1644       101651.7621       101038.3949       101320.1734       101320.3676       101336.9138       101309.7517        101343.994       101303.8873
             0.65       101224.8848       101467.6926       101445.0064       101147.5458       101162.6348       101577.2495       101661.3862       101152.6231        101444.439       101232.9961       101408.5245       101253.5841       101395.1782
           0.6625       101198.5133       101374.8842       101484.1762       101293.0788        101099.134       101334.6927       102070.7817       101081.6806       101499.9232       101181.1635        101449.031       101215.1833       101426.0791
            0.675       101198.0639       101229.8125       101482.1322       101465.4028       101118.0281       101093.8583       102042.8728       101154.2782       101456.1944       101208.4906       101434.7102       101219.1569       101423.6495
           0.6875       101305.6366        101186.711       101361.4253       101509.7668       101302.4712       101000.4056       101612.1721       101331.5286       101333.3296       101313.8742       101340.4957       101306.3391       101346.7446
              0.7       101434.8921       101184.5436       101214.7764       101500.9103       101497.3383       101064.9248       100998.6839       101500.5544       101209.6834        101420.601       101245.9314       101400.7348       101259.4469
           0.7125       101456.3032         101263.94       101169.1587       101352.7266       101553.0852       101313.6615       100588.2929       101568.3507       101148.7272       101469.7127       101201.2514       101435.6495       101224.9843
            0.725       101455.4102       101429.7355        101169.142       101194.5646       101525.7129       101564.9359       100608.7952         101494.81       101191.4432       101439.0483       101214.0151       101430.5866       101227.1025
           0.7375       101339.2397        101466.521       101279.2676       101142.7246       101344.9549       101651.2437       101038.3729       101319.8331       101318.7675       101336.8144       101309.7796        101343.497       101302.9418
             0.75        101223.454       101466.7355       101445.0272       101147.0126       101162.7105       101576.9563       101661.4838       101152.1008       101443.0668       101232.8991       101407.8215       101253.7883       101395.0065
           0.7625       101197.0599        101373.781       101483.7098       101292.8122       101099.1517       101334.4337       102070.9048       101081.1932       101498.2923       101180.4922       101449.6873       101214.7257        101425.818
            0.775       101196.7059       101229.0954       101481.7825       101465.0991       101118.0465        101093.502       102043.0785       101154.1856       101458.0331       101207.9073       101432.8786       101219.0288       101423.3327
           0.7875       101305.4374       101186.9503       101361.3487       101509.7107       101302.5782       101000.3129       101612.1173       101331.0294       101330.8322       101313.9219       101340.2655       101306.3096       101346.2771
              0.8       101433.9776       101184.6598       101214.8171       101501.0388       101497.2172       101065.0125       100998.7932       101500.3919       101207.2749       101420.7879       101246.0713        101400.047       101259.4841
           0.8125       101455.4438       101262.8952       101168.6522       101352.3997       101552.7502       101313.7064        100588.063       101568.7598       101151.5569       101469.7495       101200.9285       101436.1197       101224.6131
            0.825       101454.5611       101429.6038       101168.6474       101194.6727       101525.4911       101565.1188       100608.4629       101494.7107       101190.0533       101440.1302       101214.6517       101430.1245       101226.8693
           0.8375       101337.9391       101466.1309       101279.0928       101142.6953       101344.8619       101651.4445       101038.1312       101320.0893       101318.7449       101337.0561       101309.7507       101343.5351       101303.0643
             0.85       101223.2608        101466.371        101444.695       101147.0772       101162.3949          101577.2       101661.2111       101152.3104       101444.3165       101232.5948        101407.826       101253.9175       101394.5213
           0.8625       101197.1713       101373.9608       101483.7464       101292.8637       101099.1631       101334.4995       102070.7635       101081.1272       101498.2956       101180.6456       101449.7532        101214.752       101426.0771
            0.875       101196.7739       101228.9813       101481.7494       101465.0252       101117.9271       101093.7009        102042.986       101154.1538       101458.1228       101207.4045       101432.5308       101218.9836        101423.806
           0.8875       101304.7757       101186.5709       101361.3597       101509.4349       101302.6402         101000.06       101612.3169       101330.8842       101331.4649       101314.2205       101340.3074       101306.4102       101345.9567
              0.9       101433.7159       101184.2597       101214.6318       101500.5285       101497.2679       101064.8384       100998.7949       101500.0647       101208.1943       101421.4449       101245.5074       101399.5086       101260.2368
           0.9125       101455.0873       101262.4608       101168.8121       101352.4715         101552.95       101313.2982       100588.3004       101568.7511       101152.8027       101467.9521       101200.6377       101436.2192       101223.8574
            0.925       101454.2443       101429.4679        101168.649       101194.1636        101525.557       101564.7354       100608.6175       101494.1113         101189.87       101440.8851       101214.7889       101429.8813       101227.2238
           0.9375       101338.1505       101466.0663       101279.1481       101143.1374       101344.5593       101651.3072       101037.9283        101320.191       101318.9563       101336.9178       101309.6162       101343.5981       101302.8669
             0.95       101223.1117       101466.5161       101444.9544       101146.7706       101162.4502       101576.9475       101661.3034       101152.1875       101445.1271       101232.3638       101408.5235       101254.2098       101393.8712
           0.9625       101196.7882       101373.4692       101483.2706       101292.7007       101098.5856       101334.6133       102070.5308       101081.3786       101497.1113       101183.1273       101449.5615       101214.5595       101426.3526
            0.975       101196.3229       101229.1734       101482.1857       101465.0932       101117.7125       101093.5212       102042.8447        101154.195       101458.2413       101207.5125       101432.6955       101218.7803       101423.5062
           0.9875       101304.5234       101186.3539       101360.1612       101509.0177       101302.6012       101000.1851       101612.2482       101331.1409       101331.1404       101314.3471       101340.5804       101306.0355       101346.4027
                1        101433.259       101185.0913       101215.1933       101500.9037       101496.9537       101065.1036       100998.4446       101500.3992       101207.9283        101421.802        101244.933       101399.9714       101260.3633
           1.0125        101455.706       101262.6796       101168.2722       101352.6366       101552.9487       101313.3018       100588.2449       101568.2638       101152.6166       101467.3832       101200.1213       101436.1275       101223.7811
            1.025       101454.0555       101428.5517       101168.0138       101194.1548       101525.6108       101564.7971       100608.5132        101494.492       101189.5066       101442.4242       101214.9607       101429.9914       101227.0507
           1.0375         101338.77       101466.2741       101280.2826        101143.077       101344.8229       101651.3419       101038.2814       101319.8767       101319.4407       101335.1095       101309.5298       101343.7035       101302.5411
             1.05       101222.6443        101465.182       101443.7307        101146.397       101162.5356       101576.5271       101661.1614       101152.0174       101445.3311       101230.3317       101408.7857       101253.8865       101393.7932
           1.0625       101196.6926       101373.8655       101484.0455       101292.8493       101098.7147       101334.4838       102070.8483       101081.1229       101497.2057       101183.9308       101449.4782       101214.4173       101425.9903
            1.075       101197.4781       101229.7216       101482.0679       101464.6773       101118.0821        101093.345       102043.0715       101154.0873        101458.527       101205.1201       101432.1137       101218.7598       101424.0446
           1.0875       101302.5079       101185.7152       101360.0913       101509.0188       101301.9959       101000.5289       101611.5729       101330.9274       101330.6073       101314.9844       101340.9449       101305.7305       101346.1149
              1.1        101435.051       101185.3227       101215.3637       101501.0393       101497.3023       101064.4426       100998.8742       101500.5088       101208.4545        101422.138       101244.3734       101400.3668       101260.8191
           1.1125        101454.053       101261.8991       101167.5562        101352.684       101552.3725       101314.1393       100587.5601       101568.5966       101152.3786       101466.5311       101201.0523       101436.1835       101223.4266
            1.125       101454.0754       101429.5261       101168.4446       101193.7975       101525.9223       101564.9973       100608.9804       101494.6812       101189.2177       101443.1564       101214.9403       101429.8653       101227.2675
           1.1375        101338.743         101465.72       101280.1065       101143.8604       101344.0057       101651.1594       101037.6111       101319.8162       101320.0044       101336.1796       101308.9896       101344.1579        101301.541
             1.15       101222.7721       101465.6049       101443.2262       101145.8987       101162.9743       101575.9624       101661.3282       101152.0463       101443.9641       101230.1661       101409.8707       101252.9428       101394.6724
           1.1625       101196.4691       101374.3624       101484.5502       101293.1365       101098.4892       101333.8898       102070.7677       101081.7528       101498.0394       101184.0376       101447.9767       101215.1433       101425.4081
            1.175       101196.2708       101229.4469       101482.1249       101464.5875       101117.0929       101094.3742       102042.9876       101154.5744       101457.3737       101203.6919        101433.429       101217.6649       101424.7439
           1.1875       101304.6173       101185.1381       101359.9002       101508.9604       101303.4911       100999.8364       101612.7336       101329.2442        101331.347        101314.168       101341.8026       101306.7085       101346.1194
              1.2       101432.9634       101185.8965        101215.928       101500.1596       101495.6653       101063.6653       100997.5008       101498.8445       101209.7531       101423.2778       101244.0828       101399.3704       101260.9713
           1.2125       101455.7924       101260.6023       101167.0464       101353.8614       101554.0798       101314.1079       100589.1572       101567.7793       101154.1469       101464.7819       101203.9895       101435.9387       101223.7578
            1.225       101453.7944       101430.3796       101169.2932       101192.5697       101525.1177       101565.1639       100608.5347       101496.5081        101184.963       101445.6859       101214.9439       101430.5578       101226.5106
           1.2375       101337.5028       101466.0009       101278.3184       101145.0132       101344.9282       101651.3301       101038.8204       101322.3865       101317.8435       101336.8948       101309.4713       101343.0779       101302.2377
             1.25       101224.9783        101464.298       101446.6696       101145.6645       101162.7308       101577.5616       101661.4397       101147.3527       101445.6644       101227.7432       101409.8248       101254.2166       101394.0182
           1.2625       101194.6241       101376.7134       101480.0798        101294.624       101098.3736       101332.8369       102072.3196       101084.8073       101501.6972       101182.7728       101448.1039       101214.7904       101426.8005
            1.275       101195.8716        101226.673       101484.6231       101463.8263       101116.9447       101094.2184       102041.2164       101154.4759       101456.7181       101205.8452       101434.2585       101217.7816       101424.0057
           1.2875        101306.486       101187.0453       101360.5481       101508.5556       101304.0873       100998.9844        101612.232       101330.3721       101327.1359        101319.577        101337.547       101306.4751       101347.2143
              1.3       101429.6041       101185.8962       101213.0062       101503.0002       101495.4063       101064.0294       100997.9951       101497.9936       101211.1289       101433.6039       101247.0696       101401.4442       101260.4403
           1.3125       101459.5815        101259.507       101171.1569       101349.7845       101554.0531        101314.796       100588.6467       101571.1323        101157.203        101462.879       101208.2631        101434.163       101222.9491
            1.325       101452.5018       101432.0462       101165.2951        101194.744       101525.1679       101565.4126       100610.3952       101492.9724       101180.0756       101441.7903       101212.3993       101430.5312       101226.8016
           1.3375       101339.1358       101464.4646        101281.431       101144.9493       101343.6104       101649.5113       101038.2235       101322.2681       101323.2766       101342.1826       101304.6895       101345.0708       101300.5229
             1.35       101222.7705       101466.6301       101444.9888       101143.1501       101164.0719        101576.693       101660.0241       101148.5656       101443.1763       101227.8936       101396.9047        101252.696       101393.2418
           1.3625       101195.5143       101372.5082       101481.7436        101299.078       101099.0003       101335.2169       102070.1097       101081.8434       101497.2458       101179.0782        101453.509       101214.0786       101427.0764
            1.375       101195.8645       101232.3716       101483.5316       101458.3841        101115.892        101093.061        102041.141       101157.8104        101458.173       101205.2181        101434.444       101216.7108       101424.0413
           1.3875       101305.6811       101181.1976       101359.9128       101510.2913       101307.1708       101000.6658       101613.1958       101325.0128       101328.7319       101312.4128        101332.437       101307.6546       101346.8611
              1.4       101431.5426       101188.8718       101213.9333       101504.2269       101490.9144       101064.1946        100998.446       101501.4907       101214.8598       101424.6864       101250.8765       101405.7226       101261.4468
           1.4125       101456.7824       101258.7268       101169.6386       101345.6482       101559.2394       101314.2675       100590.6776       101564.8844       101153.4707        101466.763       101204.5667         101432.57       101221.4742
            1.425       101457.6208       101433.9555       101166.6336       101199.0966       101520.0511        101562.701       100607.9271       101497.5213       101187.9355       101440.8414       101212.9728       101432.6089       101227.7482
           1.4375       101333.0842       101461.6855       101281.3942       101143.2688       101344.6354       101655.5738       101039.4719       101324.1018       101320.7061        101342.649       101310.0297        101343.074       101296.4956
             1.45       101226.8308       101468.7471       101442.4215       101142.5904       101168.0566       101569.6734       101660.5681       101152.9764       101441.9754       101224.6622        101404.661       101248.6446        101395.578