# Probe 0 (-126 0 0)
# Probe 1 (-105 0 0)
# Probe 2 (-84 0 0)
# Probe 3 (-63 0 0)
# Probe 4 (-42 0 0)
# Probe 5 (-21 0 0)
# Probe 6 (0 0 0)
# Probe 7 (21 0 0)
# Probe 8 (42 0 0)
# Probe 9 (63 0 0)
# Probe 10 (84 0 0)
# Probe 11 (105 0 0)
# Probe 12 (126 0 0)
#           Probe                 0                 1                 2                 3                 4                 5                 6                 7                 8                 9                10                11                12
#            Time
            0.005            101325            101325            101325            101325            101325            101325            101325            101325            101325            101325            101325            101325            101325
             0.01            101325            101325            101325            101325            101325            101325            101325            101325            101325            101325            101325            101325            101325
            0.015            101325            101325            101325            101325            101325            101325            101325            101325            101325            101325            101325            101325            101325
             0.02            101325            101325            101325            101325            101325            101325            101325            101325            101325            101325            101325            101325            101325
            0.025            101325            101325            101325            101325            101325            101325            101325            101325            101325            101325            101325            101325            101325
             0.03            101325            101325            101325            101325            101325            101325            101325            101325            101325            101325            101325            101325            101325
            0.035            101325            101325            101325            101325            101325            101325            101325            101325            101325            101325            101325            101325            101325
             0.04            101325            101325            101325            101325            101325            101325            101325            101325            101325            101325            101325            101325            101325
            0.045            101325            101325            101325            101325            101325            101325            101325            101325            101325            101325            101325            101325            101325
             0.05            101325            101325            101325            101325            101325            101325            101325            101325            101325            101325            101325            101325            101325
            0.055            101325            101325            101325            101325            101325            101325            101325            101325            101325            101325            101325            101325            101325
             0.06            101325            101325            101325            101325            101325            101325            101325            101325            101325            101325            101325            101325            101325
            0.065            101325            101325            101325            101325            101325            101325            101325            101325            101325            101325            101325            101325            101325
             0.07            101325            101325            101325            101325            101325            101325            101325            101325            101325            101325            101325            101325            101325
            0.075            101325            101325            101325            101325            101325            101325            101325            101325            101325            101325            101325            101325            101325
             0.08            101325            101325            101325            101325            101325            101325            101325            101325            101325            101325            101325            101325            101325
            0.085            101325            101325            101325            101325            101325            101325            101325            101325            101325            101325            101325            101325            101325
             0.09            101325            101325            101325            101325            101325            101325            101325            101325            101325            101325            101325            101325            101325
            0.095            101325            101325            101325            101325            101325            101325            101325            101325            101325            101325            101325            101325            101325
              0.1            101325            101325            101325            101325            101325            101325            101325            101325            101325            101325            101325            101325            101325
            0.105            101325            101325            101325            101325            101325            101325       101222.9933            101325            101325            101325            101325            101325            101325
             0.11            101325            101325            101325            101325            101325            101325       101001.0363            101325            101325            101325            101325            101325            101325
            0.115            101325            101325            101325            101325            101325            101325       100800.8472            101325            101325            101325            101325            101325            101325
             0.12            101325            101325            101325            101325            101325            101325       100699.9387            101325            101325            101325            101325            101325            101325
            0.125            101325            101325            101325            101325            101325            101325       100709.2612            101325            101325            101325            101325            101325            101325
             0.13            101325            101325            101325            101325            101325            101325       100812.8789       101324.9992            101325            101325            101325            101325            101325
            0.135            101325            101325            101325            101325            101325            101325       100983.0958       101324.9399            101325            101325            101325            101325            101325
             0.14            101325            101325            101325            101325            101325       101324.9999       101204.8059       101322.9541            101325            101325            101325            101325            101325
            0.145            101325            101325            101325            101325            101325       101324.9977       101443.7495       101307.0176            101325            101325            101325            101325            101325
             0.15            101325            101325            101325            101325            101325       101324.9589       101700.2696       101263.7283            101325            101325            101325            101325            101325
            0.155            101325            101325            101325            101325            101325        101324.424        101906.618       101204.1766            101325            101325            101325            101325            101325
             0.16            101325            101325            101325            101325            101325       101320.3948       102068.4599       101154.8237            101325            101325            101325            101325            101325
            0.165            101325            101325            101325            101325            101325       101304.7235       102123.8247        101136.316            101325            101325            101325            101325            101325
             0.17            101325            101325            101325            101325            101325       101268.8892       102135.7688       101148.6894            101325            101325            101325            101325            101325
            0.175            101325            101325            101325            101325            101325       101212.9689       102061.3034       101180.1906            101325            101325            101325            101325            101325
             0.18            101325            101325            101325            101325            101325       101147.8369       101923.9613       101241.7658            101325            101325            101325            101325            101325
            0.185            101325            101325            101325            101325            101325       101096.7254       101715.6908       101312.8725            101325            101325            101325            101325            101325
             0.19            101325            101325            101325            101325            101325       101079.5886       101508.2395       101387.2646       101324.9708            101325            101325            101325            101325
            0.195            101325            101325            101325            101325            101325       101087.5156       101278.0602       101453.3344       101318.4515            101325            101325            101325            101325
              0.2            101325            101325            101325            101325            101325       101113.5473       101025.8822       101509.4108       101285.8153            101325            101325            101325            101325
            0.205            101325            101325            101325            101325            101325       101183.9754       100795.6854       101553.4749       101240.1199            101325            101325            101325            101325
             0.21            101325            101325            101325            101325            101325       101283.1207        100628.308       101575.5003        101203.355            101325            101325            101325            101325
            0.215            101325            101325            101325            101325            101325       101388.2157       100566.2113       101571.6562       101191.6422            101325            101325            101325            101325
             0.22            101325            101325            101325            101325            101325       101488.1634       100552.7364        101547.348       101195.2012            101325            101325            101325            101325
            0.225            101325            101325            101325            101325            101325        101573.715       100615.2784       101499.0188       101209.5117            101325            101325            101325            101325
             0.23            101325            101325            101325            101325       101324.9997       101634.3996       100751.0278       101436.1364       101252.4955            101325            101325            101325            101325
            0.235            101325            101325            101325            101325       101324.8042       101658.7866       100937.7799       101364.0386       101304.7127            101325            101325            101325            101325
             0.24            101325            101325            101325            101325       101318.9648       101653.9714       101146.1244       101286.6434       101357.2053       101324.9999            101325            101325            101325
            0.245            101325            101325            101325            101325        101292.352       101632.9337       101408.9423       101218.6733       101405.5759       101323.6725            101325            101325            101325
             0.25            101325            101325            101325            101325       101246.8783       101581.9651       101657.8052       101161.6315       101449.3131        101298.334            101325            101325            101325
            0.255            101325            101325            101325            101325       101200.4198       101495.0328       101875.8363         101116.96       101484.7331       101256.4749            101325            101325            101325
             0.26            101325            101325            101325            101325       101169.8019       101394.0875       102045.8047       101092.5437       101500.9741       101227.1789            101325            101325            101325
            0.265            101325            101325            101325            101325       101158.5036       101290.7944       102102.4915       101091.1752       101499.1571       101217.1464            101325            101325            101325
             0.27            101325            101325            101325            101325       101158.8348       101191.8322       102109.6831       101112.9484       101489.4243       101217.7834            101325            101325            101325
            0.275            101325            101325            101325            101325       101165.7805       101106.2235       102046.6431        101162.309        101459.384        101223.978            101325            101325            101325
             0.28            101325            101325            101325            101325       101202.3612       101042.5002       101911.0385       101221.7124       101414.5917       101256.6913            101325            101325            101325
            0.285            101325            101325            101325            101325       101276.1873       101012.3039       101720.2695       101296.3656       101362.9448       101301.3101            101325            101325            101325
             0.29            101325            101325            101325            101325        101358.167       101012.8109       101512.1173        101373.653       101308.8557       101344.2483            101325            101325            101325
            0.295            101325            101325            101325            101325       101435.6055       101030.6431       101263.0493        101444.459       101259.2878       101385.0308       101324.7856            101325            101325
              0.3            101325            101325            101325            101325       101498.9961       101074.7506        101010.989       101500.9122       101215.9095       101423.9398       101307.6002            101325            101325
            0.305            101325            101325            101325            101325       101538.4886       101157.9454       100789.5272       101545.0322       101180.0765       101453.9625       101267.9015            101325            101325
             0.31            101325            101325            101325       101324.9942       101553.7028       101260.7956        100622.163       101564.7298       101160.3693       101466.6536       101242.0212            101325            101325
            0.315            101325            101325            101325       101323.4799       101554.1915       101369.7184       100561.6163       101561.4175       101159.9044       101466.8588       101232.5628            101325            101325
             0.32            101325            101325            101325       101304.8881       101547.8094       101473.2192       100549.0558       101538.7914       101168.6431       101462.3134       101231.8557            101325            101325
            0.325            101325            101325            101325        101264.703       101522.6854       101560.0518       100611.6642       101497.7821        101196.987       101442.3313       101234.5409            101325            101325
             0.33            101325            101325            101325        101226.841       101462.5029       101621.9972       100748.7032       101433.8717       101240.9701       101404.5448       101257.6546            101325            101325
            0.335            101325            101325            101325       101203.0416       101388.6844       101648.2634       100937.0291       101358.2799       101292.3541       101362.1061       101298.2912            101325            101325
             0.34            101325            101325            101325       101192.9981        101313.268       101644.6628       101146.3694       101283.6821       101347.5621       101318.3729       101336.0955            101325            101325
            0.345            101325            101325            101325       101191.4779        101239.506       101624.3766       101398.8397       101214.9184       101398.7897       101277.2229       101373.0099       101324.9579            101325
             0.35            101325            101325            101325       101193.7866       101175.5316       101574.2188       101656.3132       101155.6862       101443.3028       101239.1443       101408.7824       101313.9094            101325
            0.355            101325            101325            101325        101210.258       101131.9003       101489.1923       101877.1929       101114.1094       101477.6073       101207.8451       101434.9485       101277.2103            101325
             0.36            101325            101325            101325       101267.8994       101112.2005       101390.1701       102041.0405       101087.8196        101494.285       101192.3694       101446.1551       101252.6308            101325
            0.365            101325            101325            101325       101342.9171        101109.183       101286.9422       102097.4913       101090.6858       101493.1702       101190.7328       101447.4392       101243.2336            101325
             0.37            101325            101325            101325       101411.0391       101113.9144       101187.6545       102107.8341       101114.4728        101484.022       101194.6054       101445.0907       101241.7581            101325
            0.375            101325            101325            101325       101462.5926       101130.7723        101102.487       102043.4422       101161.1808       101457.1437       101212.0223       101432.9413       101243.0618            101325
             0.38            101325            101325            101325       101493.7888       101185.0914       101039.2265       101904.9386       101221.8226         101413.01       101249.0685       101399.4536       101257.5999            101325
            0.385            101325            101325       101324.9991       101507.1286       101262.8791       101009.0678        101715.591       101292.1855        101360.855        101291.644       101362.0338       101294.8527            101325
             0.39            101325            101325       101324.3877       101509.5008       101345.0319       101009.6144       101510.0076       101368.8875       101306.8781       101336.5544       101324.6263       101330.1698            101325
            0.395            101325            101325       101311.7404       101506.9954        101423.933       101027.5742       101261.9582       101438.8551        101256.276       101379.6497       101288.0212       101364.8254       101324.9917
              0.4            101325            101325        101277.756       101495.7655       101489.0523       101072.5482       101005.0473       101502.0931       101212.5494       101418.8154       101252.8655       101398.0513       101317.9603
            0.405            101325            101325       101244.4523       101452.6285       101530.0648       101156.7011        100785.482        101541.636       101177.1997       101448.5433       101225.1819       101421.6383       101284.8091
             0.41            101325            101325       101223.3404       101389.3424       101546.2812       101259.0966       100623.3621       101561.2729       101157.2985       101461.4744       101211.6792       101432.1397       101260.8133
            0.415            101325            101325       101213.6308       101323.3546       101547.2387       101367.3192       100563.4108       101563.2564       101157.2103       101461.9525       101209.2058       101434.1314       101251.2301
             0.42            101325            101325       101211.1744       101260.6187       101541.1886       101471.3614       100548.8566       101538.3203       101167.0475       101457.7928        101211.125       101432.8393        101249.187
            0.425            101325            101325       101212.0441       101208.6208       101517.3835        101558.671       100609.5867       101489.1163       101196.6602       101440.4062       101220.5829       101426.3311       101249.8843
             0.43            101325            101325       101218.7112       101173.8012       101458.6391       101620.1744       100746.9992       101431.7614       101238.9789       101403.4544       101252.7606       101397.1567       101257.9435
            0.435            101325            101325       101260.7603        101156.668       101385.5383       101646.0551       100936.1368       101360.5216       101290.3319       101360.7274         101290.68       101362.6534       101291.1872
             0.44            101325            101325       101330.2968        101151.876       101310.3553       101642.4503       101145.5912       101280.7749       101346.4934       101316.5858       101329.4671       101329.2943       101325.5594
            0.445            101325            101325       101393.4834        101153.084       101236.7342       101622.2917       101398.0648       101212.9075       101398.0027       101274.8431       101368.2145       101295.4539       101358.8065
             0.45            101325            101325       101439.1115       101158.9726       101172.9124       101572.1093       101656.0377       101155.4443        101441.632       101236.5516       101404.3224       101262.5747        101389.932
            0.455            101325            101325       101466.5527       101192.4645       101129.4009       101487.0729       101876.8699       101108.3472       101476.5147       101205.2531       101430.4051        101237.455       101411.6943
             0.46            101325       101324.9998        101479.235       101259.2147       101109.7863       101388.4541       102039.9488       101086.9119       101495.4014       101190.0136       101441.7484       101224.9554       101421.7813
            0.465            101325       101324.7008       101482.6871       101333.4482       101106.8586       101285.1796       102095.6371       101090.6845       101494.3791       101188.7543       101443.2266       101221.8677       101424.2692
             0.47            101325       101315.8686       101481.8498       101401.5709       101111.6938       101185.3536       102106.1575       101114.5672       101481.5184       101193.0465       101441.0741       101222.7655       101423.6396
            0.475            101325        101287.384       101477.3385       101454.3859       101129.0527       101100.5736       102042.9155       101159.8622       101451.7464       101211.8907       101431.0371        101227.272       101420.3922
             0.48            101325       101257.4075       101448.8014       101486.8206       101183.9248         101038.76       101905.0662       101219.6652       101411.5198       101247.6853       101398.7347       101253.8741       101396.4425
            0.485            101325       101237.6762       101392.3197       101500.9249       101261.6113       101009.4666       101715.1992       101289.6342        101361.628       101290.1677       101360.9619       101289.2282       101363.7072
             0.49            101325       101227.9284       101330.8617       101503.6712       101343.6729       101010.0107       101508.5904       101368.9464       101306.7767       101335.8472       101323.0878       101324.2862       101332.8288
            0.495            101325       101224.7834       101274.7531       101501.3834       101422.6657         101027.69       101260.6766       101443.7092       101256.5133       101378.7004       101286.0436       101360.3694       101300.9304
              0.5            101325       101224.8764       101229.7485       101491.1382       101487.7651       101071.6117       101005.4384       101498.6466       101212.5625       101417.4241       101250.6051       101394.0347       101269.9469
            0.505            101325        101227.635        101199.401       101449.6323       101528.6168       101155.4214       100785.9747       101542.8018       101176.9203        101448.409       101222.9214       101417.6248       101246.6847
             0.51            101325       101256.0443       101183.3315       101386.9199       101544.7047       101258.2893       100622.2281       101565.2604        101157.371       101462.2828       101209.7363        101428.234       101234.7926
            0.515            101325       101318.7354       101177.5197       101321.0158       101545.6314       101366.9597       100561.5115       101558.6421        101156.506       101462.4235       101207.5862       101430.3939       101231.2664
             0.52            101325        101378.937       101177.1418       101258.2934       101539.5964       101471.2325       100547.9367        101532.775       101168.0236       101456.9917       101209.6847       101429.2513       101231.4847
            0.525            101325       101421.6849       101179.3545       101206.3683       101515.8542       101558.4667       100609.3885       101492.4273       101197.6779       101435.7618       101220.2638       101424.1384       101233.6125
             0.53            101325       101447.3818       101196.8896        101171.694       101457.2642       101619.6545       100746.7338       101431.6871       101237.1473       101402.0839       101251.9078       101396.7481       101253.6652
            0.535       101324.9847       101459.9511       101253.3637       101154.7123       101384.0977        101645.305       100935.3534       101359.5076       101289.1491       101361.0213       101289.5976       101361.8076       101287.4007
             0.54       101322.7492       101464.2185       101323.8581       101150.0348       101308.6835       101641.6689       101144.9432       101283.8582       101345.2478       101316.8046       101328.7534       101327.9666       101320.3911
            0.545       101305.0667       101464.3808       101385.9913       101151.3229       101235.1466        101621.612       101397.7872       101212.9686       101396.8454       101274.8247       101367.1454       101293.7061       101354.5777
             0.55       101276.6205       101462.4877       101432.0149       101157.3866       101171.9157       101571.8206       101655.1416       101155.3255       101441.0899       101236.5099       101403.3898       101260.5289       101386.2079
            0.555       101254.1113       101445.8232        101460.338       101191.3623        101129.078       101486.8748       101875.8109       101110.1957       101476.4792       101205.0744       101430.5242       101235.4524       101408.0438
             0.56       101241.1081       101396.7921       101473.7303       101258.1951       101109.8158       101387.9294       102039.6426       101087.2168       101494.9164       101189.5397       101442.2561       101223.2634       101418.2359
            0.565       101235.4808       101338.1204       101477.6049       101332.4165       101106.9597       101284.5851       102096.0273       101091.3106         101494.48       101188.5563       101443.4805       101220.4522       101420.8733
             0.57       101234.1916       101285.8857       101476.9982       101400.5819       101111.7467        101185.156       102106.2067       101115.4585       101480.9721       101193.4321       101440.9354       101221.4867        101420.382
            0.575       101234.7947       101245.0492       101473.0128       101453.3311       101128.6633       101100.5795       102042.5315       101156.7194       101452.9732        101213.116       101427.2972       101226.5681       101417.8662
             0.58       101242.5881       101217.2755       101446.2107       101485.6198       101182.9913       101038.4287       101904.6673       101217.9274       101411.4222       101246.7444       101396.8053       101253.4382       101396.2339