# Probe 0 (-126 0 0)
# Probe 1 (-105 0 0)
# Probe 2 (-84 0 0)
# Probe 3 (-63 0 0)
# Probe 4 (-42 0 0)
# Probe 5 (-21 0 0)
# Probe 6 (0 0 0)
# Probe 7 (21 0 0)
# Probe 8 (42 0 0)
# Probe 9 (63 0 0)
# Probe 10 (84 0 0)
# Probe 11 (105 0 0)
# Probe 12 (126 0 0)
#           Probe                 0                 1                 2                 3                 4                 5                 6                 7                 8                 9                10                11                12
#            Time
            0.025            101325            101325            101325            101325            101325            101325            101325            101325            101325            101325            101325            101325            101325
             0.05            101325            101325            101325            101325            101325            101325            101325            101325            101325            101325            101325            101325            101325
            0.075            101325            101325            101325            101325            101325            101325            101325            101325            101325            101325            101325            101325            101325
              0.1            101325            101325            101325            101325            101325            101325            101325            101325            101325            101325            101325            101325            101325
            0.125            101325            101325            101325            101325            101325            101325       100704.9904            101325            101325            101325            101325            101325            101325
             0.15            101325            101325            101325            101325            101325       101324.9969       101715.4843       101271.5703            101325            101325            101325            101325            101325
            0.175            101325            101325            101325            101325            101325       101218.3086       102059.7736       101172.1349            101325            101325            101325            101325            101325
              0.2            101325            101325            101325            101325            101325       101094.0485       101007.6686       101513.6434        101321.791            101325            101325            101325            101325
            0.225            101325            101325            101325            101325            101325       101592.5467       100618.0248       101499.0553       101192.5136            101325            101325            101325            101325
             0.25            101325            101325            101325            101325       101269.6642       101597.8752       101676.0795       101158.8251       101454.8372       101324.9436            101325            101325            101325
            0.275            101325            101325            101325            101325       101142.9682       101088.6967       102047.3594       101163.6538       101469.7421       101211.4665            101325            101325            101325
              0.3            101325            101325            101325            101325       101528.7999       101058.8789       100995.8079       101504.0246       101212.0664       101434.7527       101324.9939            101325            101325
            0.325            101325            101325            101325       101300.6305       101550.6756       101578.7881       100610.6911       101503.8325       101191.3206       101464.4247         101225.02            101325            101325
             0.35            101325            101325            101325       101172.6531       101148.8003       101588.5703       101673.3399       101148.0755        101450.347        101237.343       101428.7166       101324.9993            101325
            0.375            101325            101325            101325       101501.2014       101104.9787       101084.4666        102043.561       101155.8078       101469.9718       101192.3759       101450.0659       101234.7183            101325
              0.4            101325            101325       101313.8434       101521.8031        101518.706        101056.456       100986.8098        101511.855       101205.0904       101427.8676       101247.5379       101418.5883            101325
            0.425            101325            101325       101191.3271       101174.2274       101544.6686       101579.2496        100608.483       101491.8238        101189.062       101459.2939       101206.6842       101437.7942       101242.0238
             0.45            101325            101325       101482.6582       101137.3115       101145.2809       101588.1283       101673.4857       101153.2607       101445.0695       101237.5271       101430.6743       101257.9978       101410.3265
            0.475            101325       101320.4841       101499.2538         101492.54       101103.1573       101080.2748       102043.0639        101155.896       101465.2291       101202.2707       101446.1918       101216.7036       101428.5449
              0.5            101325       101204.3059       101190.1627       101517.2969        101520.182       101050.9778       100988.5452        101503.798       101211.6077       101412.4527       101245.8733       101425.5595       101273.7791
            0.525            101325       101466.0663       101159.8948       101171.8245       101546.7855       101576.9397       100606.5193       101494.0782       101184.8017       101447.6071       101209.8086       101435.6338       101225.2129
             0.55       101307.3618       101482.1513       101476.6969       101135.4747        101142.715        101583.823       101673.6337       101155.2603       101466.2923       101237.0507       101395.7434        101252.017       101416.1831
            0.575       101213.9569       101198.9076       101494.8328       101490.8166       101101.9537       101082.9005       102044.9104       101141.6523       101486.0573       101201.6495        101437.422       101222.4107       101425.2283
              0.6       101462.4775       101176.4769       101187.2462       101513.3389       101516.9365       101048.3182       100989.9506       101504.6072       101198.1881       101384.1287       101241.3208       101387.4054       101256.8086
            0.625       101470.5254       101461.0427       101158.4442       101173.8119       101532.7223       101579.5248       100608.8592       101505.3099        101150.426       101441.5899       101218.2356       101429.6417       101228.1863
             0.65       101195.3674        101478.163       101476.9091       101133.7465        101141.098       101598.2319       101675.1313       101136.2327       101459.5748       101219.1682       101413.7576       101257.5771       101371.2756
            0.675       101187.5061       101197.7174       101491.8664       101498.3541       101108.1976       101085.0311       102049.9013       101154.2545       101429.4918       101207.0761       101439.4708       101224.7274       101419.2867
              0.7       101460.0881       101175.7454       101181.2892       101523.7334       101509.0333        101054.834       100988.0259       101517.2411       101184.6748       101417.6335       101265.0786       101389.2339       101270.1215
            0.725       101466.1318        101462.834       101159.7795       101167.8092       101531.4608       101576.6558        100609.832       101488.9224       101208.8534       101449.4588       101217.7316       101425.9044       101234.0362
             0.75        101195.486        101475.998       101475.9957       101124.8275       101133.0907       101596.6565       101674.0699       101131.5584       101443.9778       101247.7116       101433.5773       101269.2848       101390.0908
            0.775       101187.5139       101194.0796       101488.9361        101482.204       101110.5332       101095.3098       102057.4399       101132.5266       101439.9177       101199.0193       101431.8806       101227.1742       101421.1516
              0.8       101457.1637       101177.7279       101185.3733        101511.806        101531.973       101066.8127       100992.3473       101523.0192       101167.2554       101398.6122       101278.8291       101371.2457       101271.6959
            0.825       101462.8484       101453.2156        101145.124       101175.7914       101548.1177       101591.3617       100609.4431       101508.8816       101168.7718       101430.4644       101207.5135       101442.7429       101230.6645
             0.85       101198.2172       101481.3712       101480.3058       101140.4019       101152.6039       101591.7723       101669.3088       101129.2989       101482.4834       101204.8942       101399.5035       101252.4527        101408.722
            0.875       101185.8565       101204.4153       101486.7434       101459.3692       101114.0429       101082.1405       102038.3172       101134.6642       101480.8428       101188.3968       101436.1834       101220.7559       101420.0507
              0.9       101456.1001       101174.1844       101195.9634        101531.656       101542.3306       101085.2781       100981.3154       101490.5662       101191.7863       101375.7175         101241.64       101414.4447       101282.1235
            0.925       101470.1336       101462.8294        101160.293       101148.5834       101517.8089       101572.5714       100591.8651       101465.8462       101176.7562       101430.6227       101206.1709       101424.0746       101232.5612
             0.95        101195.289       101497.8272       101474.4502       101153.5759       101156.6732       101607.3386       101668.2369       101178.0538       101468.1892       101212.1058       101385.1612       101279.0783       101371.9554
            0.975       101176.7418       101210.1403       101509.2689       101509.0871       101081.2095       101088.3734       102015.8306       101138.6242       101461.5564       101207.2608       101441.4323       101206.6985       101429.6023
                1       101456.1868       101163.4024       101214.4879       101515.5936       101511.5912       101059.3698       101011.2742       101525.7306       101213.3429       101416.8545       101231.0291       101410.3927       101240.4187
            1.025        101477.589       101453.1778       101163.6265       101199.2168       101533.1164       101534.5346       100672.1449        101540.097       101187.7948       101458.4124       101222.2555       101436.1204       101213.4233
             1.05       101195.7467       101491.6801       101467.5608       101181.4475       101182.3046       101597.7265       101634.3102       101194.6136       101433.6862       101240.2524       101396.1661       101250.3959        101422.087
            1.075       101174.1877       101214.9277        101505.348       101524.8598       101151.7127       101095.8657       102059.0765       101207.4009       101482.4538       101203.2754       101409.5573       101207.4992        101420.147
              1.1       101462.6383       101156.5206       101214.8856       101496.0047       101543.7007       101116.1501       101045.6536       101460.5474       101157.4651       101355.2363       101242.9025       101388.4004       101279.3283
            1.125       101478.6674        101442.302        101162.991       101164.3348       101577.1968       101642.0462       100593.5862       101428.4323       101215.6277       101422.7627       101212.9257       101422.4693       101220.4138
             1.15       101195.2282       101502.8361       101470.0353       101152.4932       101173.7656       101705.6379       101864.6033       101196.3362       101392.3389       101203.5757       101364.0101       101284.4671       101432.5439
            1.175       101165.3346       101208.6538       101461.8581       101492.9775       101112.5497       101216.2317        102271.333       101242.0628       101417.9782       101221.1999       101430.1715       101223.3484       101407.2144
              1.2       101462.7153       101161.1282       101230.0954       101488.6639       101529.3037       101134.4124       101041.3091        101726.858       101281.7583       101398.1113       101190.1028       101363.3732       101283.7134
            1.225       101475.5256       101465.2113       101156.4511       101123.7916       101595.3622       101578.9647       100625.0841       101743.0551       101249.7263       101411.7241       101236.0848       101423.5434       101273.1103
             1.25       101190.9439       101505.7503        101456.352       101153.1425       101142.0499        101674.356        101853.869       101289.2704        101616.093       101289.1707       101397.8923       101250.0784       101359.7471
            1.275       101170.2719       101234.1992       101469.5979       101495.3619       101047.5726       101184.4012        102144.774       101093.1624       101531.6531       101324.6053       101416.3679       101263.8023       101419.0352
              1.3       101462.9357       101179.3812        101189.825       101452.7154       101506.3882        101040.164       100923.0208       101752.4595        101267.408       101510.9286       101316.7679        101361.171       101227.9144
            1.325       101483.4483       101445.4963       101138.5365       101120.3955       101577.7575        101563.879       100851.2558       101515.4981        101280.804       101510.8455       101234.0206       101401.5579       101220.9094
             1.35       101211.0058       101471.1043       101457.4728       101133.0789       101165.2463       101654.4616       101620.7761       101147.6717        101607.114       101320.3165        101542.539       101327.6039       101395.9132
            1.375       101147.8363       101189.7193       101479.9079       101519.7884       101098.2398       101141.3015        102138.833        101316.842       101464.4594        101296.603       101559.5281       101335.1527       101407.0452
              1.4       101433.3768       101166.1531       101190.9654       101543.3706       101575.1902       101128.0881       101046.1147       101695.9187       101360.2099       101437.1595       101359.1475        101512.546       101321.6262
            1.425       101463.2539        101466.604       101181.8231       101174.2545       101617.6685       101462.5814       100621.8871        101516.084       101284.5373       101494.7648       101287.4053       101558.2296       101269.9743
             1.45       101224.9658       101478.7023       101487.0156       101161.7585       101124.3863       101575.9713         101701.59       101210.5429       101630.1089         101317.86       101509.8842       101403.5956       101476.7465
            1.475       101218.7027       101222.2174       101467.4434       101497.9757       101022.8064       101188.9811       102161.3663       101185.0634       101462.9708       101358.0604       101436.5609       101345.1947       101491.5808
              1.5       101470.1099       101170.2321       101201.6297       101499.4381       101564.3274       100977.9183       101082.0925       101441.3819       101280.7964       101213.0661        101330.402       101465.0891       101353.7772
            1.525       101476.4244       101411.2881       101209.3846       101160.9165       101526.7292       101526.9064       100663.5968       101461.5729       101103.4328        101352.068       101274.0351       101446.3405       101372.5476
             1.55       101218.9641       101481.0829       101451.6169       101162.0015       101163.5063         101516.21        101666.422       101091.7268       101386.9145       101245.2763        101409.189       101344.3969       101478.3652
            1.575       101178.8095       101260.1461       101426.4608       101539.7923       101077.7559       101230.8083       101796.6645       101158.6212        101552.051       101114.7869       101388.9808        101364.678       101429.1476
              1.6        101481.461        101136.046       101223.9546       101528.4729       101490.1629       100997.3726       101222.0995       101412.9148       101287.9131       101440.4743       101287.5218       101338.5328       101389.8894
            1.625       101505.8362       101380.0223       101203.1089       101142.6686       101591.3229       101498.7371       100486.6623       101409.5859       101231.1917        101316.984       101287.0923       101410.5177       101332.4972
             1.65        101197.824       101511.6728        101438.448       101135.2238       101040.4969       101772.5565       101817.8631       101189.1451       101302.8486       101440.3717       101266.8816       101427.9378       101283.3652
            1.675       101118.4732       101285.5505       101458.0156       101475.6244       101150.8796       100965.5944       102054.5136        101162.217       101459.2037       101227.6535       101525.9435       101218.9103       101434.6236
              1.7       101471.6222       101112.8594       101193.1203       101480.9767       101525.9597       101267.7044       100753.1967       101655.8944       101098.5989       101391.1213       101374.0101       101365.8978        101350.067
            1.725       101525.3787       101391.0766       101203.2986       101148.3748       101596.6182       101496.2411        100689.583       101548.1526       101185.8548       101450.6652       101187.5767        101324.426       101324.7556
             1.75       101164.0957        101501.622       101428.7843        101123.187       101150.1292       101579.2342       101814.9673       101145.6041       101573.4857       101253.7296        101365.733       101413.8952       101245.5321
            1.775        101126.379       101304.5507        101448.576       101548.3061       101107.8522       101158.0766       101914.1126       101140.0834       101356.4258       101172.6904       101505.2407       101170.0699       101399.3376
              1.8       101484.0901       101126.1806       101221.0783       101491.4993       101502.3491       101178.1517       100692.5825       101558.3266       101260.8251       101418.8284       101253.8104       101325.1322       101452.1079
            1.825       101517.5004        101382.479       101177.0515       101187.1751       101574.9923       101620.8275       100745.2781       101400.1723       101273.3862       101494.6584       101128.0951       101370.3126       101149.9759
             1.85       101197.3457       101504.3899       101432.9457        101102.743       101153.2435       101500.0108        101810.655       100938.7286       101253.7759       101251.1578       101406.5175        101307.793       101253.5217
            1.875       101126.0333       101285.9037       101444.0519       101461.7717       101134.0471        101126.778       102246.4537       101121.8915       101425.7833       101250.0798       101450.2815       101219.5854       101503.1191
              1.9       101463.9554       101138.9192       101206.5436       101474.5469       101427.8983       101049.4051       100940.3382       101763.5382       101183.2252        101415.157       101300.0536       101372.4675       101362.9351
            1.925       101527.0115       101400.1545       101160.4197       101199.6566       101509.3214       101586.7957       100520.6261       101497.7855       101119.9132       101521.2472       101330.6397       101483.3006       101120.5055
             1.95       101190.3439       101487.9206       101439.4559       101123.6019       101236.9312       101499.2695       101723.5185        101146.578       101287.9417       101225.7924       101321.7191       101388.1115       101395.0339
            1.975       101156.2448       101273.3696       101485.0301       101486.9784       101184.7548       101176.0265       102191.2063       100966.9061       101539.3566       101089.8507       101458.8335       101124.4348       101499.2466
                2       101456.0465       101142.9147       101202.7716        101452.751       101520.8094       101058.2153       101002.7251       101512.3356       101301.7375       101362.7859       101256.4176       101408.7202       101314.8928
