# Probe 0 (-126 0 0)
# Probe 1 (-105 0 0)
# Probe 2 (-84 0 0)
# Probe 3 (-63 0 0)
# Probe 4 (-42 0 0)
# Probe 5 (-21 0 0)
# Probe 6 (0 0 0)
# Probe 7 (21 0 0)
# Probe 8 (42 0 0)
# Probe 9 (63 0 0)
# Probe 10 (84 0 0)
# Probe 11 (105 0 0)
# Probe 12 (126 0 0)
#           Probe                 0                 1                 2                 3                 4                 5                 6                 7                 8                 9                10                11                12
#            Time
             0.01            101325            101325            101325            101325            101325            101325            101325            101325            101325            101325            101325            101325            101325
             0.02            101325            101325            101325            101325            101325            101325            101325            101325            101325            101325            101325            101325            101325
             0.03            101325            101325            101325            101325            101325            101325            101325            101325            101325            101325            101325            101325            101325
             0.04            101325            101325            101325            101325            101325            101325            101325            101325            101325            101325            101325            101325            101325
             0.05            101325            101325            101325            101325            101325            101325            101325            101325            101325            101325            101325            101325            101325
             0.06            101325            101325            101325            101325            101325            101325            101325            101325            101325            101325            101325            101325            101325
             0.07            101325            101325            101325            101325            101325            101325            101325            101325            101325            101325            101325            101325            101325
             0.08            101325            101325            101325            101325            101325            101325            101325            101325            101325            101325            101325            101325            101325
             0.09            101325            101325            101325            101325            101325            101325            101325            101325            101325            101325            101325            101325            101325
              0.1            101325            101325            101325            101325            101325            101325            101325            101325            101325            101325            101325            101325            101325
             0.11            101325            101325            101325            101325            101325            101325       100998.6306            101325            101325            101325            101325            101325            101325
             0.12            101325            101325            101325            101325            101325            101325        100697.289            101325            101325            101325            101325            101325            101325
             0.13            101325            101325            101325            101325            101325            101325       100813.7298       101324.9997            101325            101325            101325            101325            101325
             0.14            101325            101325            101325            101325            101325       101324.9999       101207.8891       101323.7797            101325            101325            101325            101325            101325
             0.15            101325            101325            101325            101325            101325       101324.9787       101704.0955       101265.1941            101325            101325            101325            101325            101325
             0.16            101325            101325            101325            101325            101325       101321.5347       102071.8991       101151.2743            101325            101325            101325            101325            101325
             0.17            101325            101325            101325            101325            101325       101271.5362       102137.2822       101146.3548            101325            101325            101325            101325            101325
             0.18            101325            101325            101325            101325            101325       101145.8962       101922.6475       101241.8182            101325            101325            101325            101325            101325
             0.19            101325            101325            101325            101325            101325       101075.0803       101505.2883       101389.1425       101324.9999            101325            101325            101325            101325
              0.2            101325            101325            101325            101325            101325        101108.914       101021.4904       101511.0753       101290.0455            101325            101325            101325            101325
             0.21            101325            101325            101325            101325            101325       101283.2137       100624.9079       101578.2688        101198.481            101325            101325            101325            101325
             0.22            101325            101325            101325            101325            101325       101491.3505       100551.4666       101549.0283       101192.0986            101325            101325            101325            101325
             0.23            101325            101325            101325            101325            101325        101639.571       100752.2653        101436.363       101251.0069            101325            101325            101325            101325
             0.24            101325            101325            101325            101325       101322.7751       101657.7115       101148.6404       101284.5286       101358.7856            101325            101325            101325            101325
             0.25            101325            101325            101325            101325       101248.4807       101585.5944       101662.2502       101160.0556       101451.4981       101308.7577            101325            101325            101325
             0.26            101325            101325            101325            101325       101164.7896       101393.2577       102049.6391       101089.7808       101504.5068       101221.6406            101325            101325            101325
             0.27            101325            101325            101325            101325       101153.6828       101188.8316        102110.234       101111.0094       101492.3446       101214.4072            101325            101325            101325
             0.28            101325            101325            101325            101325       101194.3008       101037.5155       101909.8725       101220.8346        101415.571       101252.5049            101325            101325            101325
             0.29            101325            101325            101325            101325       101360.0329       101008.8883       101508.9641       101375.0737       101306.9512       101345.5823            101325            101325            101325
              0.3            101325            101325            101325            101325       101505.5338        101070.929       101007.1703       101502.4798       101213.9175       101426.9859       101318.6163            101325            101325
             0.31            101325            101325            101325       101324.9999        101558.933       101260.9559       100618.2313       101567.2243       101156.5849       101470.4199       101236.3203            101325            101325
             0.32            101325            101325            101325       101313.7323       101552.7651       101476.7932       100548.2676       101539.9453       101165.6203       101465.4331       101228.3563            101325            101325
             0.33            101325            101325            101325       101223.8719       101466.6813       101627.0655       100750.0746       101434.3086       101239.8312       101406.0797       101249.8652            101325            101325
             0.34            101325            101325            101325        101187.603       101311.6652       101648.5588       101149.5524       101282.3704        101349.205       101316.7458       101337.1597            101325            101325
             0.35            101325            101325            101325       101188.0353       101169.5792        101577.649       101660.6094       101153.4885       101445.8068       101236.7477       101412.9044       101322.4706            101325
             0.36            101325            101325            101325        101259.478       101106.7858       101389.6662       102044.7498       101084.3446       101497.7679       101188.2467       101450.1039       101247.2828            101325
             0.37            101325            101325            101325       101417.5369        101109.051       101184.5823       102108.7486       101113.1489       101486.4808       101191.3572       101448.1055       101238.1815            101325
             0.38            101325            101325            101325       101500.8573       101178.9508       101034.2492       101903.5111       101221.3544       101414.2418       101247.2797       101402.3519       101248.1564            101325
             0.39            101325            101325       101324.9544       101514.8972       101347.0251       101005.6718       101506.9928       101370.0207       101305.5472       101337.8269       101323.4067       101330.8716            101325
              0.4            101325            101325       101284.4196       101503.5275       101495.6999       101068.7554        101000.657       101504.5873       101210.4344       101422.1225       101249.6194       101403.1075       101324.0443
             0.41            101325            101325       101218.4529       101392.0207       101551.6796       101259.3628       100619.8213       101564.4103       101153.2723        101465.186       101207.3493       101436.2671       101256.0213
             0.42            101325            101325       101205.5783       101255.4292       101546.1996       101474.8175       100548.0485       101539.0477       101164.3377       101460.5441       101207.8718       101435.9113       101245.5493
             0.43            101325            101325       101209.9011       101166.7663       101462.8506       101625.3011       100748.1938       101432.5446       101237.5597       101405.3209       101249.3008       101402.9431       101249.4857
             0.44            101325            101325       101328.5036        101146.537       101308.8608       101646.2692       101148.7869       101279.3475       101348.2735       101315.1521       101330.1954        101328.583       101325.6767
             0.45            101325            101325       101448.0597       101152.1899       101166.9515       101575.6503       101660.4443        101153.932       101443.5734       101234.0095        101408.747       101258.4384       101395.8022
             0.46            101325            101325       101485.5355       101254.1309       101104.3869       101388.0441       102043.6979       101083.9208       101499.5208       101185.8005       101445.6046       101220.4315       101426.0841
             0.47            101325       101321.9365       101487.7231       101408.1683       101106.7892       101182.1028       102106.8672       101113.0646       101483.6487       101189.7537       101443.8013        101219.469        101426.716
             0.48            101325        101257.263       101460.9464       101494.0381       101177.9803       101033.8251       101903.8724       101219.1847       101412.8665       101245.6119       101402.5006       101247.1246       101405.6663
             0.49            101325       101222.5884       101328.8866         101509.14       101345.5536       101006.3225       101505.4058       101370.3293       101305.0698       101337.6093       101321.9327        101324.483       101332.5414
              0.5            101325       101218.9413       101221.8215       101498.8071        101494.466       101067.5899       101001.1995       101499.9721       101210.5727       101420.0384         101247.15       101399.4867       101265.0123
             0.51            101325       101241.0018       101176.9042       101389.6782       101550.0312        101258.544       100618.6939       101568.2177       101153.3428       101466.5223       101205.3463       101432.2537       101230.0703
             0.52            101325       101385.1694        101171.429        101253.164       101544.5641       101474.7881       100547.1155       101533.8642       101165.8056       101460.3104       101206.4114       101432.0441       101228.2215
             0.53            101325       101455.6088       101184.7901       101164.7154        101461.659       101624.7742       100747.9968       101432.2876       101235.1695       101404.2485       101248.5394       101403.9406       101243.6991
             0.54       101324.7217       101470.3399       101325.1413       101144.6434       101307.0832       101645.3815         101148.11       101282.6243       101347.0233       101315.2611       101330.0079       101327.2515       101320.2516
             0.55       101280.7334       101469.0639       101441.0535       101150.5416       101165.8358       101575.4869       101659.4872       101153.5097       101443.1712       101234.0322       101407.1738       101256.1416       101392.5277
             0.56       101236.2515       101407.5788       101480.1861       101253.1992        101104.609       101387.4821       102043.3775       101084.2653       101499.0984       101185.1709       101446.6185       101218.6918       101422.4338
             0.57        101228.305       101278.8696       101482.9362       101407.1848       101107.0306       101181.9047       102106.9679       101114.1748       101483.1034       101190.2092        101444.365       101218.1608       101423.1624
             0.58        101232.103       101209.1857       101458.1838       101492.7895       101176.6927       101033.5851       101903.4316        101217.419       101412.6575       101244.0833        101399.462       101247.0826       101406.6269
             0.59       101346.5663       101189.2264       101326.9847       101507.7944       101345.3423       101005.3721       101505.2561       101370.2303       101306.1882       101336.8071       101322.2156       101324.0442       101331.3423
              0.6       101434.5518       101188.7951       101219.8971       101497.6119       101494.2569       101067.0674       101001.1678       101499.6476        101211.748       101419.5852       101247.1733       101398.3111       101262.8675
             0.61       101456.3081       101232.1687       101175.2661       101388.4242       101549.4657        101258.252       100618.8622       101567.0704       101149.2993       101466.3911       101204.9345       101433.0863       101228.5203
             0.62       101457.7295       101380.9779       101169.8625       101251.8072       101544.0407       101474.2072       100547.0354       101534.4897        101167.943       101459.7445       101206.4618       101432.5831       101227.0312
             0.63       101436.0192       101450.2341       101183.3916       101164.5138       101461.5007       101624.3476       100748.1541       101432.2945       101235.5061       101404.6154       101248.1445       101398.5042       101243.6711
             0.64       101308.2503       101465.8892       101324.5829       101144.8071       101306.7953       101645.4436       101148.1966       101281.9504       101348.4255       101314.8917       101329.3415       101327.8642       101319.6012
             0.65       101229.8559       101464.8479       101440.0784       101150.5378       101165.7949       101575.3236       101659.1926       101153.4251        101443.494       101233.9874       101406.5679       101256.0304       101391.6193
             0.66       101203.3376        101406.094       101479.0079       101252.2873       101104.0494       101387.2055       102042.7937       101083.9494       101497.2022       101184.2072       101446.4885        101218.396       101423.1565
             0.67       101199.9485       101277.1602       101481.7707       101407.0461       101106.3486        101181.881       102106.4762       101115.3944       101481.4408       101190.3722        101444.064       101218.2085       101423.7122
             0.68        101210.692       101207.7007       101457.3197       101492.4543       101176.4477       101033.6606       101903.1872       101216.7915       101414.6024       101243.3969       101399.6751       101247.8079       101400.7047
             0.69       101345.5236       101187.6508       101325.6983       101507.3666       101344.9652       101005.3832       101504.8291       101370.4076       101305.7569       101336.6029       101321.8188       101323.3433       101332.2316
              0.7       101429.8847       101187.3267       101219.1562       101497.2466       101493.8152       101067.0656       101000.7651       101499.7638       101210.4523       101419.4141       101247.4617       101397.8699       101262.6585
             0.71       101452.1235       101231.5915       101175.3587       101388.2731       101549.3914       101258.4085       100618.5208       101567.2892       101151.8076       101466.7035       101204.2721       101432.9212       101228.2965
             0.72       101453.7992       101380.3161       101169.9692       101251.8233       101544.0192       101474.0795       100547.1086       101533.8612       101167.5482       101459.3306       101206.1181       101432.3211       101227.0788
             0.73       101433.7148       101449.2349       101183.0485       101164.1725        101461.251       101624.0338       100747.8644       101432.7597       101235.3863       101404.7125       101247.8906       101398.5444       101244.5674
             0.74       101306.9916       101464.8186        101324.013       101144.2799       101306.6897       101644.9556        101148.271       101281.4775       101347.8235       101314.5978        101329.304       101327.4947       101318.8273
             0.75       101228.3878       101463.8539       101439.9307       101150.0733       101165.8434       101575.0152       101659.3053       101152.9253       101442.1792       101233.9096       101405.9448       101256.1547       101391.3081
             0.76       101201.9279       101405.2096       101478.6548         101252.09       101104.0526       101386.9769       102042.9007       101083.6118        101500.006       101184.3006       101446.9947       101217.9163       101422.9725
             0.77       101198.5495       101276.1142       101481.3849       101406.5822       101106.3693       101181.5766       102106.6241       101114.8948       101482.8781        101191.008       101444.2988       101217.9171       101423.4663
             0.78       101209.7128       101207.4723       101457.0742       101492.2623       101176.5644       101033.3469       101903.3276       101216.4654       101412.2361       101242.8423       101399.8473        101248.119        101400.731
             0.79       101345.1396       101187.7994       101325.7591         101507.33       101345.0104       101005.2787       101504.7208        101370.181        101303.962       101336.4009       101321.5996       101323.4181       101331.9817
              0.8       101428.9355       101187.4089       101219.0646       101497.2314       101493.6296        101067.042         101000.85       101499.6113        101208.255        101419.515       101247.5835       101397.2923       101262.6689
             0.81       101451.2023       101230.7066       101174.9546        101388.045       101549.0276       101258.3123       100618.3913       101567.4991       101153.7443       101466.3089       101203.9408       101433.2939        101227.923
             0.82       101452.9066       101380.1258       101169.5136        101251.824       101543.6894       101474.1722       100546.7645       101534.0495       101167.4737       101459.1359        101206.025       101432.5842       101226.8137
             0.83       101432.8656       101448.9592       101182.7756       101164.2086       101461.0847       101624.1042       100747.5374       101432.7497       101234.8054       101404.0624       101247.4214        101397.939       101244.9632
             0.84       101305.9485       101464.4597        101323.577       101144.3008       101306.4557       101645.0504       101148.0339       101281.7325        101346.854       101315.2029       101329.2187       101327.2046       101318.8345
             0.85       101228.1108       101463.5403       101439.6203       101150.1017       101165.5086       101575.1648       101659.0484       101153.0699        101443.332       101233.6473       101405.8946       101256.2832       101390.8858
             0.86       101201.9675       101405.2609        101478.642       101252.2044       101103.9521       101386.9456       102042.7061       101083.5553        101496.815       101185.5588       101447.0235       101217.8007       101423.1545
             0.87       101198.6012       101276.1536       101481.3547       101406.5672       101106.2734        101181.662       102106.5245       101114.7437       101482.3241       101191.3986       101444.3471       101217.8502       101423.8291
             0.88       101209.4454       101207.1937       101456.8887       101492.0269       101176.4314       101033.2983       101903.3621        101216.574       101413.3311       101242.9901       101400.0803        101248.191       101399.6367
             0.89       101344.6936       101187.4208       101325.7238       101507.0398       101345.1075       101005.0918       101504.8909       101369.9133         101304.11       101336.2687       101321.7509       101323.6372       101331.7961
              0.9       101428.6968       101187.0579       101219.1415       101496.7988       101493.6852       101066.8827       101000.8912       101499.2856       101209.1325        101420.039       101247.1069       101396.8887       101263.1064
             0.91       101450.9143       101230.3222       101174.9004       101387.9513       101549.1593       101258.0582       100618.4984         101567.39       101154.4417       101465.2053       101203.9073       101433.3087       101227.5389
             0.92       101452.6144       101379.8216       101169.6081       101251.7007       101543.9962       101473.8663        100546.985       101533.6771       101166.1292       101458.9578       101205.8404       101432.6474       101226.7081
             0.93       101432.8299       101448.8761       101182.5734       101163.8527       101460.9743       101623.9727       100747.5457       101432.4491       101235.8344       101403.5271       101247.0255       101397.6772       101245.2969
             0.94       101306.0102        101464.352       101323.8337        101144.682       101306.4052        101644.951       101147.9105       101281.7608       101347.0151        101315.072       101329.0081       101327.1835       101318.7786
             0.95       101227.9156       101463.5768       101439.7278       101149.9645       101165.6537       101574.9773       101659.1187       101153.0324       101444.1151       101233.4377       101406.4615        101256.541       101390.3099
             0.96       101201.6532       101405.1186       101478.1002        101251.877       101103.6659       101387.0648       102042.5644       101083.7024        101496.232        101185.805       101446.4019       101217.6906        101423.266
             0.97        101198.237       101275.7557       101481.8233        101406.798       101105.8458       101181.7355       102106.2122       101114.9539       101482.7862       101190.9729       101444.7319       101217.5436       101423.7499
             0.98       101209.0048       101207.8145       101456.4051       101492.0245       101176.4613       101033.3627       101903.2696       101216.6276       101412.8054       101244.6233       101399.8889       101248.1091       101399.3299
             0.99         101344.55       101186.9949       101324.8994       101506.6907       101344.9405       101005.2846       101504.7599       101370.0842       101303.9494       101336.9633       101321.7991       101323.4274       101331.7724
                1       101428.1786       101187.6947       101219.4008       101497.1171       101493.3826       101066.9533       101000.5495       101499.4767       101208.7982       101420.2222       101246.6783       101397.0632        101263.276
             1.01       101450.8431       101231.0126       101174.5142       101388.2892       101549.1088       101258.0005        100618.427       101567.1778       101154.0486       101463.8517        101204.089       101433.1903       101227.5624
             1.02       101453.1273       101378.5459         101168.88       101251.3871       101543.9297       101473.8628       100546.9414       101533.8066       101166.4568       101459.4966        101205.715       101432.9707       101226.7628
             1.03       101432.2077       101449.1412       101183.1475       101163.9886        101461.005       101624.0038       100747.6227        101432.541       101235.6768       101402.9473       101246.9494       101397.8066       101245.2548
             1.04       101307.2799       101464.1528       101324.2835       101144.5182       101306.4277       101644.7274        101148.011       101281.3809       101347.5172       101313.6184        101328.751       101327.0891       101318.7837
             1.05       101227.5775       101462.4499       101439.0059       101149.7365       101165.6718       101574.7757       101659.1721       101152.8377        101444.063        101231.619       101406.7588       101256.5298       101390.1678
             1.06       101200.4235       101404.7474       101478.6765       101251.6588       101103.8726       101386.9884       102042.7413       101083.5723       101496.4533        101186.206       101446.2459       101217.5788       101423.2394
             1.07       101199.2608       101277.2646       101481.9525       101406.5899       101105.9176       101181.5392       102106.3703       101114.8818       101483.2181        101190.936       101444.9787       101217.0872       101423.7666
             1.08       101208.4055       101206.4006       101456.2009       101491.9649       101176.5242       101033.1553       101903.2309       101216.3197       101412.5743       101243.1053       101399.4179       101248.6234       101399.1633
             1.09       101343.2987       101187.3899         101325.12       101506.6646       101344.8634       101005.2833       101504.6603       101370.0173       101303.4118       101337.5158       101322.1726       101323.1593       101331.6549
              1.1       101429.5593       101187.7676       101219.3185        101497.001       101493.5382       101067.0263       101000.6925       101499.4519       101209.0374       101420.5455       101246.3187       101397.2537       101263.6044
             1.11        101450.318       101230.2559       101173.9484       101388.4002        101549.047       101258.0256       100618.3578        101567.517        101154.239       101464.9742        101204.862       101433.2101       101227.3271
             1.12       101453.1475       101379.1316       101169.3109       101251.0687       101543.7454       101473.9584       100546.8136       101533.9723       101165.9329       101459.1324       101204.9317       101433.1668       101226.6047
             1.13       101431.7128       101448.8716       101182.6329       101164.1046       101460.8399       101624.2579        100747.433       101432.3741       101235.7669       101403.5062        101246.848       101397.5988       101245.8672
             1.14       101307.2129       101464.5269       101324.1677       101144.8717       101305.9789       101644.6117       101147.9632       101281.4472       101347.5435        101314.353       101328.8629        101327.306       101318.3921
             1.15       101227.8118       101462.7136       101439.2037        101149.639       101165.7216       101575.1964       101658.9183       101153.0361        101443.338       101231.4387       101407.4243       101255.8518       101390.4699
             1.16       101200.4231       101404.4887       101478.4809       101251.6834       101103.6391       101386.5844       102043.0138       101083.4764        101496.657       101187.0502       101445.8123       101218.0796       101422.9865