# Probe 0 (-126 0 0)
# Probe 1 (-105 0 0)
# Probe 2 (-84 0 0)
# Probe 3 (-63 0 0)
# Probe 4 (-42 0 0)
# Probe 5 (-21 0 0)
# Probe 6 (0 0 0)
# Probe 7 (21 0 0)
# Probe 8 (42 0 0)
# Probe 9 (63 0 0)
# Probe 10 (84 0 0)
# Probe 11 (105 0 0)
# Probe 12 (126 0 0)
#           Probe                 0                 1                 2                 3                 4                 5                 6                 7                 8                 9                10                11                12
#            Time
             0.01            101325            101325            101325            101325            101325            101325            101325            101325            101325            101325            101325            101325            101325
             0.02            101325            101325            101325            101325            101325            101325            101325            101325            101325            101325            101325            101325            101325
             0.03            101325            101325            101325            101325            101325            101325            101325            101325            101325            101325            101325            101325            101325
             0.04            101325            101325            101325            101325            101325            101325            101325            101325            101325            101325            101325            101325            101325
             0.05            101325            101325            101325            101325            101325            101325            101325            101325            101325            101325            101325            101325            101325
             0.06            101325            101325            101325            101325            101325            101325            101325            101325            101325            101325            101325            101325            101325
             0.07            101325            101325            101325            101325            101325            101325            101325            101325            101325            101325            101325            101325            101325
             0.08            101325            101325            101325            101325            101325            101325            101325            101325            101325            101325            101325            101325            101325
             0.09            101325            101325            101325            101325            101325            101325            101325            101325            101325            101325            101325            101325            101325
              0.1            101325            101325            101325            101325            101325            101325            101325            101325            101325            101325            101325            101325            101325
             0.11            101325            101325            101325            101325            101325            101325       100998.7188            101325            101325            101325            101325            101325            101325
             0.12            101325            101325            101325            101325            101325            101325       100699.4366            101325            101325            101325            101325            101325            101325
             0.13            101325            101325            101325            101325            101325            101325       100814.2732       101324.9992            101325            101325            101325            101325            101325
             0.14            101325            101325            101325            101325            101325       101324.9999       101207.1896       101322.9266            101325            101325            101325            101325            101325
             0.15            101325            101325            101325            101325            101325       101324.9587       101702.9415       101263.2189            101325            101325            101325            101325            101325
             0.16            101325            101325            101325            101325            101325       101320.3511       102069.4958       101154.3736            101325            101325            101325            101325            101325
             0.17            101325            101325            101325            101325            101325          101268.5       102135.3718       101148.8181            101325            101325            101325            101325            101325
             0.18            101325            101325            101325            101325            101325       101147.1649       101922.0941       101242.4382            101325            101325            101325            101325            101325
             0.19            101325            101325            101325            101325            101325       101079.4548       101506.2031       101388.0308        101324.972            101325            101325            101325            101325
              0.2            101325            101325            101325            101325            101325       101113.8763       101023.3368       101509.9623       101285.4748            101325            101325            101325            101325
             0.21            101325            101325            101325            101325            101325        101284.141       100627.4312       101575.6642       101202.9916            101325            101325            101325            101325
             0.22            101325            101325            101325            101325            101325       101489.1653       100553.0824       101547.0552       101195.1784            101325            101325            101325            101325
             0.23            101325            101325            101325            101325       101324.9997       101634.9596       100752.8554       101435.4827       101252.9538            101325            101325            101325            101325
             0.24            101325            101325            101325            101325       101318.9583        101653.927       101148.5571       101285.8508       101357.7454       101324.9999            101325            101325            101325
             0.25            101325            101325            101325            101325       101246.4171        101581.348       101660.1153       101161.0679       101449.7755       101298.1342            101325            101325            101325
             0.26            101325            101325            101325            101325       101169.4736       101393.0591       102046.7323       101092.3397       101501.1152       101226.8574            101325            101325            101325
             0.27            101325            101325            101325            101325       101158.7315       101190.8415       102109.3301       101113.2344       101489.3427       101217.7193            101325            101325            101325
             0.28            101325            101325            101325            101325       101202.7494       101041.8956        101909.314       101222.3544       101414.1444       101257.0311            101325            101325            101325
             0.29            101325            101325            101325            101325       101359.0128       101012.8071       101509.7577       101374.4382       101308.2933       101344.6897            101325            101325            101325
              0.3            101325            101325            101325            101325       101499.6816        101075.295       101008.5895       101501.4537       101215.4587       101424.3821       101307.5278            101325            101325
             0.31            101325            101325            101325       101324.9945       101553.8999       101261.8528       100621.2763       101564.8694       101160.1872       101466.7972       101241.7177            101325            101325
             0.32            101325            101325            101325       101304.8059       101547.8567       101474.2517       100549.3917        101538.507       101168.7042       101462.3312       101231.7668            101325            101325
             0.33            101325            101325            101325       101226.4468       101461.9111       101622.5727       100750.4399       101433.1676       101241.4074       101404.1841       101257.8695            101325            101325
             0.34            101325            101325            101325       101192.8077       101312.4863       101644.6331       101148.7502       101282.9709       101348.1363        101317.915       101336.4787            101325            101325
             0.35            101325            101325            101325       101193.6626       101174.8319       101573.6077       101658.7443        101155.152       101443.7677       101238.7184       101409.2122       101313.9074            101325
             0.36            101325            101325            101325       101268.4202       101111.9645       101389.1595       102041.8759       101087.6265       101494.4338       101192.1951       101446.3066       101252.3406            101325
             0.37            101325            101325            101325       101411.8007       101113.8456       101186.6627       102107.4864       101114.7675        101483.948       101194.5724       101445.1488       101241.6563            101325
             0.38            101325            101325            101325       101494.1803       101185.6323       101038.6245       101903.1884       101222.4454        101412.556       101249.4207       101399.1528       101257.6844            101325
             0.39            101325            101325       101324.3976       101509.6451       101345.8879       101009.6104       101507.6838       101369.6906       101306.3186       101337.0227       101324.2376       101330.5193            101325
              0.4            101325            101325       101277.5212       101495.7407       101489.7573        101073.107       101002.6017       101502.7013       101212.0973       101419.2599       101252.4495       101398.4718        101317.993
             0.41            101325            101325       101223.0665       101388.7531       101546.4887       101260.1454       100622.5269       101561.4549       101157.1098        101461.619       101211.5017       101432.2995       101260.5361
             0.42            101325            101325       101211.0167       101259.9087       101541.2443       101472.4012       100549.1766       101537.8855       101167.1428       101457.8135       101211.0588       101432.9129       101249.0766
             0.43            101325            101325       101218.6336       101173.3721       101458.0609       101620.7448       100748.7458       101431.1478          101239.4       101403.0993       101253.0482       101396.9211       101257.9195
             0.44            101325            101325       101330.9636       101151.7205       101309.5765        101642.421       101147.9725       101279.9892       101347.0825       101316.1247       101329.8673        101328.953       101325.8882
             0.45            101325            101325       101439.6899       101158.9124        101172.215       101571.4986        101658.477       101154.8712       101442.0802       101236.1221       101404.7584       101262.1658       101390.3463
             0.46            101325       101324.9998       101479.4764       101259.8284       101109.5507         101387.45       102040.7743       101086.7696       101495.5805       101189.8412       101441.8991       101224.7719       101421.9488
             0.47            101325       101315.8824       101481.9938       101402.3441       101111.6255       101184.3529       102105.8166       101114.8715       101481.3628       101193.0245       101441.1278       101222.6863       101423.7217
             0.48            101325       101257.1342       101448.6383        101487.226       101184.4717       101038.1741       101903.3231       101220.3008       101411.1126       101248.0198       101398.4486       101254.0827       101396.2891
             0.49            101325       101227.7271       101330.2222       101503.8176       101344.5271       101010.0094        101506.253       101369.7858       101306.2022       101336.3294       101322.6953       101324.6425       101332.5193
              0.5            101325       101224.7195       101229.1756       101491.1273       101488.4702       101072.1545       101003.0087       101499.1417       101212.1033       101417.8588       101250.1829       101394.4638       101269.5431
             0.51            101325       101256.1729       101183.0618       101386.3382       101544.9099       101259.3431       100621.3674       101565.4145       101157.1724       101462.4409       101209.5611       101428.3924       101234.6025
             0.52            101325       101379.6076       101176.9889       101257.5832       101539.6514       101472.2759       100548.2671       101532.4984       101168.1575       101456.9809       101209.6202       101429.3193       101231.3971
             0.53            101325       101447.7744       101196.9263       101171.2667       101456.6904       101620.2212       100748.4781        101431.022       101237.5484       101401.7691       101252.1859       101396.5384       101253.7737
             0.54       101322.7777       101464.4067        101324.575       101149.8803       101307.9003       101641.6377       101147.3282       101283.0623        101345.832       101316.3418        101329.162        101327.621       101320.7208
             0.55       101276.4241       101462.6434       101432.6052       101157.3286       101171.2233       101571.2169       101657.5715       101154.7683       101441.5462       101236.0826       101403.8232       101260.1131       101386.6323
             0.56       101240.8912       101396.4396       101473.9788       101258.8089        101109.586       101386.9207       102040.4808       101087.0514       101495.0987       101189.3646       101442.4177        101223.082       101418.4019
             0.57       101234.0257       101285.2541       101477.1449       101401.3575       101111.6817       101184.1604       102105.8596       101115.7253       101480.8407       101193.4298       101440.9925       101221.4078       101420.4583
             0.58       101242.4853       101216.8607       101446.0651       101486.0225       101183.5298       101037.8396       101902.9238       101218.6108       101411.0008       101247.0537       101396.5382       101253.6488       101396.1161
             0.59        101347.104       101195.0329       101328.1176       101502.5091       101344.2467       101009.1499       101506.1049       101369.8158       101307.1876       101335.5103       101322.9208       101323.8265       101331.3455
              0.6       101425.9012       101194.8432       101227.2683       101489.9035       101488.2309       101071.6415       101002.9365       101498.3977       101213.2306       101417.2924        101250.131       101393.8253       101267.6608
             0.61       101449.9676       101247.4856       101181.4106       101384.9873       101544.4073       101259.0098       100621.5151       101564.2722       101153.9056       101462.2903        101209.268        101428.757       101233.0911
             0.62       101451.4064       101373.7724       101175.4109       101256.4727       101539.1735       101471.7057       100548.1726       101533.0437       101170.3198        101456.554        101209.733       101429.2616       101230.2378
             0.63       101420.0502       101442.2311        101195.713       101170.9896       101456.4249        101619.826       100748.6393       101431.0533        101237.518       101401.9334       101251.7931       101394.0456       101253.5678
             0.64        101312.155       101459.8546       101323.8637       101149.8436       101307.6596        101641.625       101147.3849       101282.3915       101347.0015       101316.0199       101328.4791       101327.9068        101319.851
             0.65       101238.3465       101458.4666       101431.6703       101157.1563       101171.0798       101571.0725       101657.2878       101154.5914       101441.7426       101235.9792       101403.1849       101259.9942       101386.1686
             0.66       101209.6541       101394.7192       101472.8485       101258.2136       101109.0613       101386.6776       102039.8977       101086.7877       101493.4944       101188.5966       101442.2626       101222.8814       101418.6837
             0.67       101205.9803       101283.4807       101475.9802       101401.1502        101111.094       101184.1059       102105.3872       101116.8296       101479.1125       101193.3856       101440.7347       101221.5019       101420.3845
             0.68       101225.3083       101215.2798       101445.0072       101485.6778       101183.2364        101037.904       101902.6451       101218.0215       101412.6537       101246.5756       101396.5642       101253.6715       101393.2725
             0.69       101342.8328       101193.5581       101327.0678       101502.1365        101343.847       101009.1621       101505.6866       101369.9491       101306.7527       101335.3681       101322.6113       101323.1766       101331.6633
              0.7       101420.7996       101193.4143       101226.5712       101489.5692        101487.806        101071.644       101002.5104       101498.5742       101211.8734       101417.0771        101250.248       101393.3264       101267.5198
             0.71       101445.6822       101246.7892       101181.2753       101384.7936       101544.2915       101259.1274       100621.2229       101564.4684       101155.8374       101462.4925       101208.7287       101428.5733       101232.9463
             0.72        101447.444       101373.1085       101175.4145       101256.3937       101539.1142       101471.5846       100548.2076       101532.4528       101169.9196       101456.2235       101209.4276       101429.0481       101230.3297
             0.73       101418.0686       101441.2523       101195.3387       101170.6708       101456.2397       101619.5027       100748.3939       101431.5454       101237.0871       101401.9534       101251.6274        101393.977       101253.8175
             0.74       101310.6168       101458.8103       101323.4191       101149.3845       101307.5367       101641.1868       101147.4121       101281.8579         101346.52       101315.7726       101328.4242       101327.6619       101319.2076
             0.75       101236.8701       101457.4722       101431.4879       101156.7256       101171.1086       101570.7575       101657.3997       101154.1586       101440.5051        101235.929       101402.6897       101260.0011        101385.762
             0.76       101208.2629        101393.809       101472.5399       101257.9368       101109.0882       101386.4304       102039.9998        101086.413       101495.8081       101188.7721       101442.6372       101222.4898       101418.4943
             0.77       101204.6538       101282.5523       101475.6464       101400.7529       101111.1061       101183.7788       102105.5248       101116.3088       101480.3055       101193.8343       101440.8022       101221.2329       101420.1867
             0.78       101224.4591       101214.9845       101444.7393        101485.478       101183.3075       101037.6083        101902.748       101217.7461        101410.562       101246.0586       101396.5615       101253.7281       101393.1595
             0.79       101342.3012       101193.5257       101327.0134       101502.0508       101343.8781       101009.0641       101505.6055       101369.7278       101305.0184        101335.203       101322.4124       101323.1616       101331.5054
              0.8       101419.9401       101193.3658       101226.4669       101489.5021       101487.6343       101071.6113       101002.5785       101498.4074       101209.9954       101417.0825       101250.3492       101392.9391       101267.4647
             0.81       101444.7444        101246.225       101180.8945       101384.6428       101543.9587       101259.0454       100621.0773       101564.6692       101157.3551       101462.0053       101208.4423       101428.8199       101232.6353
             0.82        101446.549       101372.8901       101175.0057       101256.3478       101538.7876       101471.6544       100547.8865       101532.6416       101169.9867       101456.0252       101209.3072       101429.1806       101230.1013
             0.83       101417.2352       101441.0333       101195.0816       101170.6864       101456.0465       101619.5838       100748.0922       101431.5045         101236.62       101401.6315       101251.3355       101393.7013       101253.9782
             0.84       101309.7048       101458.5008       101323.0532       101149.4199       101307.2952       101641.2885        101147.156       101282.1227       101345.8012       101316.2603       101328.3672       101327.4264       101319.1446
             0.85       101236.5011       101457.1636       101431.2055        101156.755       101170.8086       101570.8645       101657.1542       101154.2726       101441.6171       101235.7099       101402.5541        101260.085       101385.4762
             0.86       101208.1932       101393.7625       101472.4376       101258.0269       101108.9519       101386.4174       102039.8078       101086.3627       101493.2501       101189.8208       101442.7091        101222.346       101418.6163
             0.87       101204.5818       101282.5196       101475.5809       101400.7026       101110.9904       101183.8207        102105.421       101116.1841       101479.8915        101194.405       101440.8094        101221.131       101420.3251
             0.88       101224.0814       101214.7086       101444.6289       101485.2622       101183.2473       101037.5772       101902.7959       101217.8092       101411.5856       101246.0058       101396.7165       101253.7349       101392.7208
             0.89       101342.0293          101193.2       101326.9448       101501.7703       101343.9033       101008.8794       101505.7404        101369.494       101305.1579       101335.2605       101322.4753       101323.2781       101331.4126
              0.9       101419.7422       101193.0453        101226.476       101489.1578       101487.6879       101071.3932       101002.6187       101498.1003       101210.7832        101417.405        101250.068       101392.6397         101267.66
             0.91       101444.4674       101245.9068        101180.927       101384.4834       101544.1084       101258.8114       100621.2028       101564.5238       101158.0005       101461.1548       101208.4077       101428.8553       101232.4317
             0.92       101446.2683       101372.5716       101175.0313       101256.1526       101539.0192       101471.4197       100548.0632       101532.2914       101168.4786        101455.603       101209.1098       101429.1854       101230.0032
             0.93       101417.1795       101440.8969       101195.0148       101170.5314       101456.0394       101619.4167       100748.0991       101431.2464       101237.6639       101401.1716       101251.0662       101393.5498       101254.1004
             0.94       101309.6722       101458.4296       101323.1649       101149.5569       101307.2466       101641.1291       101147.0525       101282.1119       101345.9812        101315.978       101328.2127       101327.3957       101319.0388
             0.95        101236.282       101457.1195       101431.1597       101156.6657       101170.8436       101570.7471       101657.1618       101154.2372       101442.2677       101235.4862       101402.8487       101260.2598       101385.0832
             0.96       101207.9128       101393.5385       101472.2642       101257.8415       101108.7293       101386.5137       102039.7309       101086.4944       101492.7586       101189.8433       101442.3799       101222.2255       101418.6153
             0.97       101204.2762       101282.4152       101475.6727       101400.7801       101110.7094         101183.91       102105.1643       101116.3713       101480.4059       101194.3881       101441.0855       101220.8682       101420.3059
             0.98       101223.7678       101214.9268       101444.3343        101485.242       101183.0962        101037.629       101902.6458       101217.8666       101411.0246         101247.28       101396.6769       101253.5952       101392.5918
             0.99        101341.743       101193.2238       101326.4913       101501.6087       101343.7506       101009.0069       101505.5645        101369.648       101304.9462       101335.8456       101322.4563       101323.1882       101331.3759
                1       101419.3274         101193.45        101226.332       101489.3564       101487.4836       101071.5209       101002.3525       101498.2746       101210.4235       101417.4736       101249.7798       101392.5897       101267.7981
             1.01        101444.505       101246.1796       101180.6034       101384.6742       101544.0335       101258.7805       100621.1306       101564.3541       101157.6264       101459.8143        101208.583       101428.9151       101232.4838
             1.02       101446.3409       101372.0121       101174.6596         101256.09       101538.9199       101471.3982        100548.015       101532.3854       101168.8175       101456.5684       101208.9045       101429.4472       101229.9007
             1.03       101417.2295       101440.7487       101195.2687       101170.5106       101456.0425        101619.374       100748.1457       101431.2729       101237.4934       101400.8599       101250.9684       101393.6285       101254.0511
             1.04       101310.2006       101458.0995       101323.3666       101149.4238       101307.2854        101640.994        101147.179       101281.8035         101346.36       101314.7884       101328.1204       101327.3159       101319.0234
             1.05       101236.0544       101456.4342       101431.0286       101156.4724       101170.9147       101570.5681       101657.2539       101154.0761       101442.2931       101234.0325       101403.0586       101260.2774       101384.9542
             1.06        101207.483        101393.526       101472.4569        101257.619       101108.8282       101386.3751       102039.8239        101086.352       101492.9795       101189.9325       101442.1567       101222.0422       101418.6255
             1.07       101204.4904       101282.7485       101475.7866       101400.6134       101110.8091       101183.6985       102105.2936       101116.2029       101480.6797       101194.3308        101440.878       101220.5547       101420.3817
             1.08        101223.439        101214.571       101444.3171       101485.1937       101183.1224       101037.4948       101902.6114       101217.6543       101410.8655       101245.8308       101396.4535        101253.765       101392.4469
             1.09        101341.186       101193.1696       101326.5121       101501.5045       101343.7473       101008.9866       101505.5408       101369.5702       101304.6415       101336.3698       101322.6438       101323.0966       101331.3047
              1.1       101419.7829       101193.2663       101226.1997       101489.3355       101487.5671       101071.5224       101002.4576       101498.3107       101210.5437       101417.8949       101249.5953       101392.5891       101268.0012
             1.11       101444.3309       101245.9637         101180.39       101384.6032        101543.922       101258.8241        100621.013       101564.5998       101157.6957       101461.1934       101209.2178       101429.0112       101232.2934
             1.12       101445.9379        101372.158       101174.6052       101255.9341        101538.824       101471.5192       100547.8413       101532.4402       101168.4297        101455.733       101208.0546        101429.672       101229.7308
             1.13       101417.1967       101440.7528       101195.0286        101170.633       101455.7868       101619.5057        100748.008       101431.2661       101237.5375       101401.1589       101250.7502       101393.5686       101254.3675
             1.14       101310.0802       101458.2523       101323.2415       101149.5414       101306.9946       101641.1156       101147.0182       101281.9293       101346.2831       101315.3401       101328.3666       101327.3643       101318.9772
             1.15       101235.8179       101456.7019       101431.1052       101156.5659       101170.7905       101570.6684        101657.178       101154.1163        101441.751       101234.0608       101403.5107        101260.038       101384.8331
             1.16       101207.5048        101393.496       101472.3746        101257.804       101108.7478       101386.1261       102039.8226       101086.2315       101493.0385        101190.595       101441.7708       101222.1916       101418.6959