# Probe 0 (-126 0 0)
# Probe 1 (-105 0 0)
# Probe 2 (-84 0 0)
# Probe 3 (-63 0 0)
# Probe 4 (-42 0 0)
# Probe 5 (-21 0 0)
# Probe 6 (0 0 0)
# Probe 7 (21 0 0)
# Probe 8 (42 0 0)
# Probe 9 (63 0 0)
# Probe 10 (84 0 0)
# Probe 11 (105 0 0)
# Probe 12 (126 0 0)
#           Probe                 0                 1                 2                 3                 4                 5                 6                 7                 8                 9                10                11                12
#            Time
            0.025            101325            101325            101325            101325            101325            101325            101325            101325            101325            101325            101325            101325            101325
             0.05            101325            101325            101325            101325            101325            101325            101325            101325            101325            101325            101325            101325            101325
            0.075            101325            101325            101325            101325            101325            101325            101325            101325            101325            101325            101325            101325            101325
              0.1            101325            101325            101325            101325            101325            101325            101325            101325            101325            101325            101325            101325            101325
            0.125            101325            101325            101325            101325            101325            101325       100709.1655            101325            101325            101325            101325            101325            101325
             0.15            101325            101325            101325            101325            101325       101324.9848       101712.6975       101264.6412            101325            101325            101325            101325            101325
            0.175            101325            101325            101325            101325            101325       101212.9728       102058.3506       101178.3969            101325            101325            101325            101325            101325
              0.2            101325            101325            101325            101325            101325       101107.3427       101012.8754         101513.21       101292.8975            101325            101325            101325            101325
            0.225            101325            101325            101325            101325            101325       101582.7607       100618.0278       101498.3064       101203.3898            101325            101325            101325            101325
             0.25            101325            101325            101325            101325       101248.5231       101585.9054       101670.2301       101157.9525       101453.7311       101314.8978            101325            101325            101325
            0.275            101325            101325            101325            101325       101156.6554       101097.5803       102044.4898       101163.8549       101461.8816       101216.9482            101325            101325            101325
              0.3            101325            101325            101325            101325       101510.7596       101070.3573       100999.2835       101504.3757       101211.8956       101429.8098       101322.1779            101325            101325
            0.325            101325            101325            101325       101272.0748       101532.4401       101569.1544       100613.8698       101499.1052       101194.8371       101449.5203       101228.7961            101325            101325
             0.35            101325            101325            101325       101184.9226       101164.5945        101577.824       101668.8688       101151.1141        101448.192       101234.5625        101416.597       101324.1526            101325
            0.375            101325            101325            101325       101476.3168        101120.892       101093.8487       102041.2405       101160.7753       101461.0547       101205.2787       101443.3304       101237.7527            101325
              0.4            101325            101325       101288.3654        101507.296       101501.0469       101068.2277        100992.238       101507.2434       101208.3777       101425.0213       101246.7851        101407.554       101324.7722
            0.425            101325            101325        101203.008       101195.8985       101526.9015        101568.163       100611.3964        101489.063       101194.4126       101448.5635       101211.3009       101434.9472       101244.6231
             0.45            101325            101325       101454.5707        101148.813       101161.9515       101575.9122       101668.7896       101151.9089       101445.3743       101231.7411       101412.5484       101254.8348       101400.8944
            0.475            101325       101299.7477       101488.1048       101468.2956       101119.2374       101091.3536       102041.0924       101159.7269       101453.9606        101206.229       101440.6611       101219.9635       101426.5366
              0.5            101325       101215.7963       101215.8748        101502.603       101499.8563       101066.8449       100992.9446       101501.5459       101208.6092       101422.2643       101244.1277       101404.1659       101260.6738
            0.525            101325       101437.6345       101170.2754       101193.9137       101525.4569       101568.1358       100611.2638       101492.8691        101195.319       101439.5572        101211.074       101431.1402       101228.0734
             0.55       101283.4325       101472.2148       101447.5631       101147.2148       101160.7931        101575.834       101667.8037       101151.3147       101445.1711       101231.8616       101410.3464       101252.2879       101397.9607
            0.575        101225.387        101229.756       101483.5556       101467.3363       101118.8526       101091.6087       102040.5883       101156.0525       101455.9931       101208.8764       101435.0076       101218.7648       101422.8485
              0.6       101440.3807       101185.7041       101213.8748       101501.4647       101499.7076       101066.3398       100992.9444       101501.7733       101209.7313       101421.9128       101244.2583        101402.448       101258.2727
            0.625       101459.6334       101432.2645       101168.5541       101193.0672       101525.2584       101567.3451       100611.1647         101493.17       101193.5481       101439.4572       101213.3056       101431.0285       101226.9289
             0.65       101223.6873       101468.0133       101446.5867       101147.3186       101160.7962       101575.6578       101667.5195       101151.2799       101445.5729       101231.8858       101409.8393       101252.2219       101396.6009
            0.675        101197.722       101228.2781       101482.4762       101467.0389       101118.2392       101091.6505       102040.5001       101155.4163       101455.6282       101208.8417       101434.5853       101219.0081       101423.7854
              0.7       101436.0159       101184.2057       101213.2566       101501.0419       101499.1773       101066.2859       100992.5386       101501.8767       101208.5482       101421.7531       101244.6691         101402.15       101258.0276
            0.725       101455.7604       101431.2253       101168.8381       101192.9544       101525.2255       101567.1656       100611.0196       101493.6815       101192.1238       101438.6562       101214.0931       101430.7559       101226.9795
             0.75       101222.2201       101467.0801       101446.5276       101146.7671        101160.881       101575.3969       101667.6194       101150.7776       101444.2349       101231.7818       101409.1078       101252.4079       101396.4607
            0.775       101196.3526       101227.6008       101482.0869       101466.6988       101118.2599       101091.3244       102040.7285       101155.3174       101457.3586       101208.1868       101432.6965       101218.8712       101423.4578
              0.8       101435.1064       101184.3455        101213.304       101501.1327        101499.022       101066.3997       100992.6505        101501.676       101206.0917       101421.9567       101244.8405       101401.4473       101258.0225
            0.825       101454.9036       101431.1593       101168.3549       101193.0634       101524.9146       101567.3652       100610.7151       101493.5932        101190.588       101439.7142        101214.709       101430.3066       101226.7531
             0.85       101222.0907       101466.7269       101446.2475       101146.8626        101160.571       101575.6742       101667.3477       101150.9903       101445.4824       101231.4815       101409.1077       101252.5227       101395.9832
            0.875       101196.4507       101227.4891       101482.0651       101466.6402       101118.1521       101091.5775       102040.6401       101155.2676       101457.4422       101207.6949        101432.387       101218.7913        101423.872
              0.9       101434.8674       101183.9285       101213.1266       101500.6348       101499.1051       101066.2287       100992.6851       101501.3888       101207.0116       101422.6431       101244.2394       101400.9651       101258.7711
            0.925       101454.5786       101431.0013        101168.346       101192.4996       101525.0385       101566.9858        100610.823        101492.972       101190.5088       101440.4323        101214.772       101430.1378       101227.1148
             0.95       101221.9268       101466.8611       101446.4826       101146.5008        101160.596       101575.3918       101667.4315       101150.8574       101446.3608       101231.1954       101409.8115       101252.8871       101395.2854
            0.975       101195.9149        101227.702        101482.472       101466.6887       101117.9042       101091.3692       102040.4937       101155.3435       101457.5837       101207.9004       101432.5823       101218.6216        101423.628
                1       101434.2126       101184.8517       101213.6637       101501.0968       101498.8227       101066.4796        100992.291       101501.7149       101206.7464       101423.0939       101243.6734       101401.3768       101258.8646
            1.025       101453.8934       101430.0839       101167.6728       101192.5386       101525.0644       101566.9988       100610.7673       101493.3797       101190.0701       101442.1212       101214.9262       101430.1265       101226.8914
             1.05        101220.894       101465.3132       101445.3038       101146.0535       101160.7217       101575.0099       101667.3478       101150.7508       101446.5689       101229.0793       101410.0985       101252.5097       101395.1562
            1.075       101196.0285       101227.8927       101482.3899        101466.294       101118.2656       101091.2087       102040.9266       101155.1885        101457.879       101205.3983       101432.0294       101218.5628       101424.2491
              1.1       101435.6487       101184.9941       101213.7912       101501.1704       101498.8433       101065.8201       100992.5847        101501.783       101207.4884       101423.3388       101243.1149       101401.8444       101259.4139
            1.125       101453.1091       101430.9175       101167.6336       101191.7179       101525.3251       101567.5878       100611.1661       101493.3364       101189.5445       101442.8427       101215.0823       101430.1456         101227.11
             1.15       101219.2009       101466.3629       101444.6603       101144.6074       101161.4816       101574.5567       101667.4484       101150.5794       101444.8938       101229.4127       101411.4203       101251.4384       101396.0047
            1.175       101195.4128       101229.1781       101481.5824       101465.2879        101117.468       101092.3385       102040.6057       101155.8961       101456.7177       101203.8088       101433.0464       101217.3945       101424.8743
              1.2       101437.9372       101183.7263       101215.6238       101499.5439       101497.3509        101064.842       100990.8586        101499.071       101208.6497       101424.4333       101243.2247       101400.8662       101259.5089
            1.225       101456.2818       101430.9791       101170.5829       101190.2713       101524.8657       101567.2052       100610.9246       101496.0622       101184.4037       101445.2284       101214.6395       101431.0772       101226.3607
             1.25       101218.6019       101469.4447       101446.8665       101145.2281       101161.1542        101575.464       101667.3629        101144.174       101445.5243       101225.1777       101411.4178       101252.3217       101395.1143
            1.275       101192.9388       101230.2513       101484.8006       101466.6935       101115.4939       101091.7155       102037.8107        101155.976       101456.5692       101206.3489       101434.8185       101217.9041       101424.1647
              1.3       101436.7147       101180.6286       101219.5913       101499.5474       101498.6296        101064.171       100990.3474       101498.6953       101208.9592       101437.2811       101246.6475       101403.0799       101259.8013
            1.325       101453.1431       101428.3814       101171.7185       101194.3768       101527.4369        101567.451       100612.2714       101492.0888       101179.9294       101439.8039       101213.5177       101430.5134       101226.0166
             1.35       101217.5973       101474.2865       101441.4676       101151.6243       101160.8286       101579.9947       101665.3481       101145.2103       101441.4442       101227.9221       101396.7881       101252.2198       101394.0634
            1.375       101192.0443       101234.8014       101478.4068       101467.6551       101117.8992       101094.4122       102039.4555       101158.2727       101458.3282       101204.7874       101432.5847       101216.1343       101424.6161
              1.4       101439.6396       101183.9275       101220.5786       101496.1848       101505.1971       101062.1954       100996.3723       101501.1258       101212.2731       101428.8704       101249.2249       101408.4864       101260.3867
            1.425       101456.9996        101429.051       101172.2085       101191.6937       101528.6788       101566.1992       100613.9371       101489.6014       101184.9358       101435.5676       101214.5908       101433.9826       101227.9478
             1.45       101222.0902       101476.6293       101437.6136       101151.1503       101158.1093       101586.1639       101661.0705       101153.5308       101442.7835       101227.1997       101404.7119       101247.0864       101396.9631
            1.475       101193.8838       101235.5411        101476.889       101467.1145       101113.7071       101099.3247       102040.0358       101155.2135       101454.9694       101199.5501        101435.435       101217.5061       101422.5476
              1.5       101444.2723       101176.0455       101224.8726       101496.0886       101500.8827       101058.6799       101001.8638       101492.0128       101205.2173        101430.005       101242.2505       101416.4394       101264.3456
            1.525       101462.5323       101425.5554        101170.203       101187.1168       101527.7783       101563.0116       100619.3171       101491.6009       101183.8014       101431.0293       101211.9004       101431.2909       101223.6004
             1.55       101210.8762        101479.149       101440.0621       101153.6398       101160.9526       101583.3337        101656.827       101162.5873       101434.8488       101233.8888       101401.4621       101248.7394       101402.6557
            1.575       101189.5175       101236.4614       101478.5694       101463.2195       101110.3132        101093.003       102034.2889       101163.6568       101458.6129       101195.8006       101426.5342       101214.6322       101421.7621
              1.6       101447.7528       101178.3008       101225.1534       101496.5931       101502.7321        101062.554       100999.4582       101492.9815       101223.5988       101411.6021       101246.8102       101411.4187        101259.238
            1.625       101459.8797       101423.5526       101170.8317       101186.6357        101529.939       101558.7271       100611.5566        101490.569       101190.6088       101443.8805       101204.5287       101426.9235       101224.6137
             1.65       101213.0572       101480.8955       101442.4669       101150.9737       101157.8642       101582.0663       101656.7758       101159.9895       101426.8167       101245.5472       101401.2516       101252.0215       101400.1314
            1.675       101189.2308       101236.0033       101478.7484       101469.3652       101110.3914        101094.295       102031.7204       101156.1283       101461.0344       101208.0741       101442.9171       101214.6433       101413.5828
              1.7       101444.6245       101176.2679       101225.5373       101496.6987       101502.2346       101062.8648       101001.4074       101493.5043       101222.4295       101412.1778       101264.3961       101386.5838       101267.0661
            1.725       101462.2131       101427.4647       101173.7571       101184.2033       101531.8792       101563.9264       100614.3925       101486.5558       101171.5761       101445.4573        101206.794       101433.6758       101211.2693
             1.75       101212.3624       101480.7904       101441.7309       101150.6633       101152.9311       101579.1057       101657.8854       101151.8918       101443.6811       101243.8975        101394.538       101258.0612       101382.4229
            1.775       101190.6577        101237.879       101471.6239       101475.9474       101110.5939       101095.6091       102033.8702       101159.4553       101455.7618        101191.611       101444.9705       101212.6996       101422.9734
              1.8       101444.8832       101173.6378       101221.3645       101497.1909       101503.9421       101059.9414         101002.04       101497.9107       101209.3583       101415.7129        101264.086       101388.8414       101279.0462
            1.825       101461.6792       101418.3119       101176.9013       101182.8948       101533.9687        101561.691       100611.4338       101483.1078       101189.6077        101438.939       101194.9386        101437.453       101222.8987
             1.85       101209.1183       101481.0591       101442.2344       101149.7115       101154.8198       101581.5078       101664.2743       101155.7815       101437.1107       101242.1233       101400.3819        101266.394       101381.9641
            1.875       101190.8665       101237.5981       101469.7814       101477.5446       101109.5983       101097.8954       102037.2636       101156.4145       101450.9798       101200.6615       101436.0415        101210.631       101434.0221
              1.9       101445.5563       101174.0213       101220.4093       101497.2613       101502.4881       101058.0012       100997.5267       101499.2225       101221.1734       101419.8064        101256.778       101393.8722       101291.9831
            1.925       101463.5472       101416.7329       101176.5407       101182.3626       101536.5175       101559.3641       100614.6034       101482.9175       101186.1452       101433.4406        101204.673       101436.5369       101215.6686
             1.95       101209.1601       101481.4886       101443.1877       101147.3664       101154.5135       101580.4724       101662.8815       101156.3028       101443.4304       101248.8104       101402.8393       101259.2458       101385.4642
            1.975       101191.1973       101235.7478       101469.5674       101478.2527       101108.7838       101098.5323       102034.6066        101160.565       101457.5431       101195.0615       101428.4137        101210.481       101432.3336
                2       101444.4096       101175.6529       101220.2635       101495.3649       101501.8022       101060.4331       100998.8325       101498.7988       101215.0346       101424.2332       101256.0835        101403.069       101272.4501
