# Probe 0 (-126 0 0)
# Probe 1 (-105 0 0)
# Probe 2 (-84 0 0)
# Probe 3 (-63 0 0)
# Probe 4 (-42 0 0)
# Probe 5 (-21 0 0)
# Probe 6 (0 0 0)
# Probe 7 (21 0 0)
# Probe 8 (42 0 0)
# Probe 9 (63 0 0)
# Probe 10 (84 0 0)
# Probe 11 (105 0 0)
# Probe 12 (126 0 0)
#           Probe                 0                 1                 2                 3                 4                 5                 6                 7                 8                 9                10                11                12
#            Time
           0.0125            101325            101325            101325            101325            101325            101325            101325            101325            101325            101325            101325            101325            101325
            0.025            101325            101325            101325            101325            101325            101325            101325            101325            101325            101325            101325            101325            101325
           0.0375            101325            101325            101325            101325            101325            101325            101325            101325            101325            101325            101325            101325            101325
             0.05            101325            101325            101325            101325            101325            101325            101325            101325            101325            101325            101325            101325            101325
           0.0625            101325            101325            101325            101325            101325            101325            101325            101325            101325            101325            101325            101325            101325
            0.075            101325            101325            101325            101325            101325            101325            101325            101325            101325            101325            101325            101325            101325
           0.0875            101325            101325            101325            101325            101325            101325            101325            101325            101325            101325            101325            101325            101325
              0.1            101325            101325            101325            101325            101325            101325            101325            101325            101325            101325            101325            101325            101325
           0.1125            101325            101325            101325            101325            101325            101325       100888.0013            101325            101325            101325            101325            101325            101325
            0.125            101325            101325            101325            101325            101325            101325       100709.7122            101325            101325            101325            101325            101325            101325
           0.1375            101325            101325            101325            101325            101325            101325       101092.8345       101324.6489            101325            101325            101325            101325            101325
             0.15            101325            101325            101325            101325            101325       101324.9648       101704.5651       101263.4285            101325            101325            101325            101325            101325
           0.1625            101325            101325            101325            101325            101325       101315.0076       102102.6922        101139.653            101325            101325            101325            101325            101325
            0.175            101325            101325            101325            101325            101325       101212.4526       102060.0387       101180.2538            101325            101325            101325            101325            101325
           0.1875            101325            101325            101325            101325            101325       101082.3729       101606.2675       101351.3185            101325            101325            101325            101325            101325
              0.2            101325            101325            101325            101325            101325       101112.8145       101021.6091       101510.5364       101286.1874            101325            101325            101325            101325
           0.2125            101325            101325            101325            101325            101325       101337.2529       100592.6965       101577.5365       101193.1926            101325            101325            101325            101325
            0.225            101325            101325            101325            101325            101325        101575.912       100616.3968       101498.4735       101208.7113            101325            101325            101325            101325
           0.2375            101325            101325            101325            101325       101323.9842        101659.767       101036.4151       101323.8865        101332.147            101325            101325            101325            101325
             0.25            101325            101325            101325            101325       101246.5924       101582.0794        101661.792       101160.5096       101450.4582       101300.1549            101325            101325            101325
           0.2625            101325            101325            101325            101325       101160.5419       101340.7198        102078.591       101088.0078       101502.3122       101218.7093            101325            101325            101325
            0.275            101325            101325            101325            101325       101164.2399       101104.0842       102045.5139        101162.965       101459.5149       101222.7284            101325            101325            101325
           0.2875            101325            101325            101325            101325        101318.193       101008.7704       101618.6674       101336.3326       101334.7144       101323.8875            101325            101325            101325
              0.3            101325            101325            101325            101325       101501.4557       101074.4903        101007.026       101502.0119        101214.824       101425.2608       101310.3125            101325            101325
           0.3125            101325            101325            101325       101324.9273       101556.4373       101316.7821       100589.1452       101566.2933       101157.4904       101468.5658       101234.1884            101325            101325
            0.325            101325            101325            101325       101265.1546       101524.0124       101562.2733       100612.7942        101497.596       101196.8769       101443.1672        101233.318            101325            101325
           0.3375            101325            101325            101325       101194.9569       101349.8723       101649.9819       101038.5656       101318.5778       101320.8963       101339.3173       101318.2655            101325            101325
             0.35            101325            101325            101325        101192.176       101173.1903       101574.2972       101660.4311       101154.4671       101444.5287       101237.9788        101410.315       101316.5585            101325
           0.3625            101325            101325            101325       101305.4239       101107.8183       101337.1158       102071.2887       101085.4677       101496.0298       101189.4183       101448.5239       101244.9847            101325
            0.375            101325            101325            101325        101465.255       101129.2733       101100.3513       102042.2936       101161.5808       101457.4864       101211.1672       101434.4549       101241.9236            101325
           0.3875            101325            101325       101324.9843       101510.8517       101305.0953       101005.5359       101615.0149       101331.2565       101332.8823       101314.7734       101342.5579       101313.4218            101325
              0.4            101325            101325       101278.8145       101497.7053       101491.5615       101072.3138       101000.8903       101503.4699       101211.4327       101420.2044       101251.5222       101399.7619       101320.2104
           0.4125            101325            101325       101215.6943       101355.4492       101549.3496       101314.5705       100591.7129       101565.4559       101154.4558       101463.4993       101208.4551       101434.8447       101253.1693
            0.425            101325            101325       101210.3757       101206.1297       101518.6984       101560.9471        100610.632       101488.6973       101196.5562       101441.4014       101219.1064       101428.1107       101248.7424
           0.4375            101325            101325       101293.6235       101151.5099       101346.9162       101647.7153       101037.7927       101319.6256       101319.3409       101337.8002       101310.5722        101345.359       101308.9317
             0.45            101325            101325       101441.9631       101157.1331       101170.5782       101572.2065       101660.1893       101154.3267       101442.7183       101235.3473       101405.9358       101261.0603       101391.7966
           0.4625            101325       101324.9951       101483.5306       101297.1678       101105.4472       101335.5347       102069.7469       101085.7869       101497.8185       101187.2676       101444.1744       101221.4757       101424.7359
            0.475            101325       101288.8476       101479.3834       101457.1105       101127.5697       101098.3682       102041.8254       101160.2496       101451.8363       101211.1735       101432.6088       101225.7021       101421.9672
           0.4875            101325        101230.211        101360.948        101504.893        101303.724       101006.0614       101614.0887       101329.4197       101333.3489          101313.8       101341.2698       101307.1039       101347.7884
              0.5            101325        101223.155        101227.123       101493.0667        101490.285       101071.3049       101001.3412       101499.6237        101211.457        101418.665       101249.2085        101395.842       101268.2831
           0.5125            101325        101283.219       101177.6661       101353.1283       101547.7273        101314.027       100589.7646       101566.0742       101153.8465       101464.3693       101206.6901       101430.9776       101231.1096
            0.525            101325       101424.6008       101177.5699       101203.8808       101517.1826       101560.7651       100610.4509        101492.113       101197.5604       101436.2299       101218.8814       101425.7855       101232.2972
           0.5375       101324.8619       101464.7283       101288.7081       101149.6219       101345.3475       101646.9033       101036.9667       101321.4483       101318.3297       101338.1418       101309.8071       101344.2684       101304.1186
             0.55       101277.1264       101464.4476       101434.9132       101155.5328       101169.5614       101571.9515       101659.2656       101154.1615       101442.2132       101235.3171       101404.8822       101258.9532       101388.1765
           0.5625       101235.9848       101367.5261       101478.2997       101296.1398       101105.5821       101334.8733       102069.9928       101085.2969       101497.6038       101186.8735       101444.7182       101219.9373       101421.2207
            0.575       101233.0184       101242.3057       101475.0366       101456.0532       101127.1653        101098.409       102041.4253       101157.0008       101453.1988       101212.5624       101428.3801       101224.9597       101419.2204
           0.5875       101315.7671       101195.6893       101358.9146       101503.5731       101303.2447         101005.19       101613.8718       101330.8482       101333.6377       101312.8378       101341.6788        101306.385       101346.9011
              0.6       101428.2185       101193.1839       101225.2419       101491.8556       101490.0588       101070.7907       101001.2777       101499.0027        101212.604       101418.1211       101249.1679       101395.1115        101266.343
           0.6125        101453.104       101279.0729        101176.035       101351.7075       101547.2046       101313.6514       100589.9075       101565.4877       101152.7355       101464.3785       101206.5027       101431.3759       101229.7314
            0.625       101450.2349       101418.6113       101176.0134       101203.2119       101516.8893       101560.1174        100610.395       101492.2264       101196.4791       101435.7671       101220.1217       101423.2926       101231.2989
           0.6375       101337.8004       101460.0404       101288.0128       101149.6059       101345.0432       101646.8711       101037.1556       101320.4509       101319.5844       101337.7922       101308.8633        101344.654       101303.4383
             0.65       101236.0863       101460.2431       101433.9753       101155.4012       101169.4523        101571.809       101658.9833       101154.0105       101442.4361       101235.2285       101404.2456       101258.8306        101387.642
           0.6625       101205.6729       101365.9063       101477.1356       101295.6635       101104.9993       101334.6818        102069.197       101084.9561       101495.8841       101185.9164       101444.5691       101219.8253       101421.5439
            0.675       101205.5675        101240.631       101473.8949       101455.7883       101126.6594       101098.4351       102041.2084       101156.3253       101452.8239       101212.8513       101427.9469       101225.6103       101418.2492
           0.6875       101312.6943       101194.1988       101357.8536       101503.1933       101302.9452       101005.2274       101613.4497       101331.1196       101333.7211       101312.8297       101341.4048       101305.5368       101347.1624
              0.7       101423.2309       101191.7416       101224.5199       101491.5114       101489.6248        101070.797       101000.8551       101499.1666       101211.2524       101417.9104       101249.3226       101394.6211       101266.1848
           0.7125       101448.9615       101278.5474       101176.0228       101351.5646        101547.134       101313.7294       100589.7116        101565.339       101152.8786       101465.1614       101205.9747       101431.1922       101229.6602
            0.725       101446.6153       101417.7489       101176.0318       101203.0582       101516.8103       101559.9135         100610.28       101492.7335       101195.3998       101434.8083        101220.534       101422.9926       101231.5377
           0.7375       101336.3902       101458.9894       101287.3946       101149.1436       101344.8652       101646.4181       101037.1209       101320.0954       101318.1073       101337.7178       101308.7668       101344.4091       101302.7048
             0.75       101234.6073       101459.2491       101433.8019       101154.9553       101169.4726       101571.4895       101659.0933       101153.5619       101441.1871       101235.1705       101403.7168       101258.8621       101387.2494
           0.7625       101204.3034       101364.8902       101476.8053       101295.3619       101105.0172       101334.3989       102069.3011       101084.4357        101494.786       101185.1972       101445.0333        101219.445       101421.3581
            0.775       101204.2697       101240.0149       101473.5551       101455.4639       101126.6809       101098.0695       102041.3657       101156.1879       101454.2041       101212.8192       101426.8368        101225.729       101418.0437
           0.7875       101312.2616       101194.1812       101357.7815       101503.0999       101302.9987       101005.0899       101613.3794       101330.7204       101331.4216       101312.7949       101341.3005        101305.474       101346.9647
              0.8       101422.3438       101191.7222       101224.4066       101491.4559       101489.4408       101070.7647       101000.9273       101499.0015       101209.3044       101417.9361       101249.4343       101394.1909       101266.1444
           0.8125       101448.0463       101277.9646       101175.6193       101351.4236       101546.7856       101313.6779        100589.477       101565.6739       101155.4017       101465.3569       101205.6234       101431.4767        101229.354
            0.825       101445.7606       101417.5952       101175.6378       101203.0522       101516.5296       101559.9899       100609.9701       101492.6569       101193.9206       101435.1255       101221.0224       101422.2408       101231.4166
           0.8375       101335.3796       101458.6775       101287.0852       101149.1753        101344.656       101646.5129       101036.8526       101320.3568       101318.3769       101337.9157       101308.6363       101344.3425       101302.6811
             0.85        101234.273       101458.9303       101433.5127       101154.9804       101169.1758       101571.6092       101658.8456       101153.6826       101442.2939         101234.94        101403.595       101258.9568       101386.9338
           0.8625       101204.2661       101364.9144       101476.7395       101295.4286       101104.9094        101334.381       102069.1411       101084.3571       101494.5939       101185.5038       101445.2785       101219.3118       101421.5188
            0.875       101204.2049       101239.8628       101473.4801       101455.3171       101126.5831       101098.1396       102041.3134       101156.1781        101454.351        101212.734       101426.2508       101225.9675       101417.8411
           0.8875        101311.875       101193.8542       101357.6802       101502.8397       101303.0108       101004.9101       101613.5283       101330.6045       101331.9327       101313.0447       101341.3869       101305.4466       101346.9049
              0.9       101422.1412        101191.386       101224.4342       101491.0959        101489.498       101070.5542       101000.9659       101498.6873       101210.1083       101418.3049       101249.1093       101393.8628        101266.389
           0.9125       101447.7351       101277.6189       101175.6552       101351.2933       101547.0028       101313.4459       100589.6382       101565.5883       101156.5566       101463.9369       101205.3024       101431.5634       101229.0716
            0.925       101445.5084       101417.3584       101175.5994       101202.8186       101516.6792       101559.7765       100610.0815        101492.168       101193.8377       101435.7575       101221.2944       101421.7109       101231.5183
           0.9375       101335.4217       101458.6036       101287.1756       101149.3027       101344.5718        101646.375       101036.7498       101320.3742       101318.4805       101337.4578       101308.4866       101344.4166       101302.5226
             0.95        101234.062       101458.9043       101433.4594       101154.8956       101169.2352       101571.4852       101658.8572       101153.6419       101442.9906        101234.718       101403.9494       101259.1608       101386.5012
           0.9625       101203.9712       101364.6799       101476.6625       101295.2781       101104.6082        101334.503       102069.0003       101084.5699       101493.5219       101186.9885       101445.4485       101219.0788        101421.576
            0.975        101203.878       101239.9859       101473.4661       101455.4274       101126.3691       101098.1745       102041.0904       101156.2348       101454.5273       101212.9722       101425.8552       101226.0097       101417.5964
           0.9875       101311.5707       101193.8502        101357.128        101502.625       101302.8889       101005.0294       101613.3835       101330.7506       101331.5925       101313.3915       101341.4425       101305.1871       101347.0197
                1       101421.7002       101191.8484       101224.3594       101491.3228       101489.2791       101070.6698       101000.6836       101498.8786       101209.7559       101418.3951       101248.7852       101393.8533       101266.5295
           1.0125       101447.9351       101277.5999       101175.1994       101351.4154       101546.9258       101313.3875       100589.6146       101565.3408       101156.2976       101463.3919       101204.7629       101431.7278       101229.0991
            1.025       101445.4211       101416.9025       101175.4462       101202.7645       101516.6221       101559.7746       100610.0646       101492.3925       101193.5539       101436.0152       101221.7428       101421.4748       101231.4203
           1.0375       101335.9529       101458.4903       101287.5263       101149.2194       101344.6029       101646.2553       101036.8626        101320.069       101318.9379       101335.9738       101308.4456       101344.4305       101302.3171
             1.05       101233.7939       101458.1199       101433.2509       101154.6924       101169.3035       101571.2908       101658.9572       101153.4888       101443.0271        101233.174       101404.1865         101259.16       101386.3759
           1.0625        101203.796       101364.9107       101476.9191        101295.062       101104.7111       101334.3503       102069.0961        101084.419       101493.8066       101187.3926       101445.5588       101218.7452       101421.6064
            1.075       101204.0075        101239.984       101473.4653       101455.3232       101126.4734       101097.9653       102041.1711       101156.0557       101454.5113       101210.8879       101425.6502       101226.3981       101417.4788
           1.0875       101310.8209       101193.6208       101357.1751       101502.5458       101302.8454       101005.0154       101613.3076        101330.613       101331.2603       101313.8007       101341.5302       101305.0412       101347.0375
              1.1       101422.3616       101191.6873       101224.2099       101491.2901       101489.3913       101070.6718       101000.8089       101498.8938       101209.8935       101418.8091        101248.588       101393.8882       101266.7533
           1.1125       101447.2991       101277.4732       101175.0078       101351.2947       101546.7762       101313.4558       100589.4354       101565.6419       101156.2625       101462.8563       101205.3433       101432.0208       101228.8431
            1.125       101445.4497       101417.0314       101175.3987       101202.7188       101516.4814       101559.9331       100609.9269       101492.3342       101193.4101       101437.5845       101222.1026       101420.8364       101231.4971
           1.1375        101335.781       101458.5314        101287.277       101149.3828       101344.2566       101646.3379       101036.6898       101320.1742        101319.034       101336.8308       101308.4456       101344.5724       101302.0845
             1.15       101233.5925       101458.4582       101433.3575       101154.7671       101169.2009       101571.4534       101658.8752        101153.554       101442.4229       101233.1593       101404.6609       101258.8648       101386.3026
           1.1625       101203.7518       101364.8784       101476.8118       101295.3067        101104.646       101334.0539        102069.098       101084.2663       101493.9519       101188.1132       101444.7951       101218.6628       101421.6797
            1.175       101203.9769       101239.8439       101473.3183       101455.2863       101126.5465       101098.0815       102041.2375        101156.282       101454.3917       101209.2248       101426.3858       101226.6352       101417.3055
           1.1875       101310.8279        101193.743       101357.2507       101502.3525       101303.1289       101004.8821       101613.0905       101330.7073       101331.5734       101313.4284       101342.0636       101305.0228       101347.1306
              1.2       101422.2137       101191.5433       101224.1989       101491.1921       101489.2782       101070.5474       101000.7781       101498.7068       101209.8958        101419.484       101249.2595       101394.1619       101266.8198
           1.2125       101447.6386       101277.2124       101175.1965       101351.1144       101546.9376       101313.5881       100589.6296       101565.5777        101156.418       101461.6913       101206.2249       101432.0906       101228.7276
            1.225        101445.329        101416.991       101175.5595       101202.6403       101516.4402       101559.7735       100609.9844       101491.8056       101193.7061       101439.1245        101222.397       101420.3514       101231.5049
           1.2375       101335.6627       101458.6334       101287.4774       101149.3409       101344.3128       101646.1947        101037.075        101320.214       101318.7732       101336.7104       101308.7567       101344.7376       101301.9577
             1.25        101234.302       101457.7785       101433.1744       101154.7089       101169.1812       101571.2213       101658.8636       101153.5575       101442.9459       101233.3976       101404.9146       101258.7979       101386.1905
           1.2625       101202.8226       101365.7415       101476.7508       101295.4843       101104.5627        101334.164       102068.9827       101084.4286       101493.2502       101188.8031       101444.1323       101218.2499       101422.0042
            1.275       101203.7873       101239.0249       101473.3368       101455.2155       101126.4606       101098.0947       102041.1071       101156.6194       101454.4665       101209.1896       101427.1374       101227.2781       101416.8205
           1.2875       101311.5127       101194.3121       101357.2463       101502.7164       101303.1257       101005.1645       101612.8657       101330.7674       101331.4501        101313.313       101341.5317       101304.9066       101347.3543
              1.3       101420.7513        101191.592       101223.8613       101490.9893       101489.0619       101070.6762       101000.6524       101498.7006       101209.5968       101419.4104       101247.7598        101394.057        101266.938
           1.3125       101448.8367       101277.0659       101175.4689       101351.3096       101546.8586       101313.6565       100589.6039       101565.4775       101156.5614       101461.4489       101207.6782        101432.082       101228.2795
            1.325       101444.4186        101416.548       101175.6545       101202.4342       101516.0772       101559.6936       100609.9641       101491.9925       101193.5841       101438.8183       101220.5493       101419.6013       101231.7339
           1.3375       101335.8234       101459.7331       101287.1241       101149.6911       101344.6388       101646.1553        101037.237       101320.0171        101318.932       101336.4409       101310.0412        101344.622       101301.7596
             1.35        101234.335       101456.4021       101434.4136       101154.4906       101169.2785       101571.1015       101658.9423       101153.4746       101442.9906       101233.6329       101404.6778        101258.891       101386.1478
           1.3625       101203.2835        101366.503       101475.3967       101295.8568       101104.7457       101334.1163       102069.0533       101084.2772       101493.5021       101188.6078       101444.7162       101218.4564       101422.2957
            1.375       101202.5519       101238.8899       101473.7506       101454.5285        101126.234       101097.8362       102041.2037       101156.5059       101454.5012       101208.5941       101428.0267       101227.4182       101416.4551
           1.3875       101313.6804       101193.3694       101358.1035       101502.6826       101303.4842       101005.2581       101612.9043       101330.6988       101331.3645       101313.5538       101340.6047       101304.5724       101347.5022
              1.4       101417.9621       101193.2491       101221.8901       101491.4341       101488.4473       101070.5371       101000.6967       101498.7621       101209.6838       101419.1283       101247.4491       101394.0201        101266.785
           1.4125       101450.8737       101275.2534       101177.3217       101350.3328         101547.55       101313.5673       100589.6373       101565.5571       101156.4993       101461.7812       101207.4968       101431.6837       101228.2732
            1.425        101444.492       101417.8616       101174.8852       101203.2526       101515.3262       101559.8302       100609.6166       101492.1485       101193.4028       101438.6754       101220.3307       101420.2108       101231.8238
           1.4375       101334.2168       101459.9432       101286.2317        101150.302       101344.5247        101646.695       101037.4752       101320.1133       101318.8291       101336.6401       101308.8638       101344.8971       101301.4921
             1.45       101236.0903       101455.0906       101435.5683       101153.4074       101170.1177        101570.211        101658.557       101153.5491       101442.7148       101233.8373       101405.3307       101258.2066       101386.5291