# Probe 0 (-126 0 0)
# Probe 1 (-105 0 0)
# Probe 2 (-84 0 0)
# Probe 3 (-63 0 0)
# Probe 4 (-42 0 0)
# Probe 5 (-21 0 0)
# Probe 6 (0 0 0)
# Probe 7 (21 0 0)
# Probe 8 (42 0 0)
# Probe 9 (63 0 0)
# Probe 10 (84 0 0)
# Probe 11 (105 0 0)
# Probe 12 (126 0 0)
#           Probe                 0                 1                 2                 3                 4                 5                 6                 7                 8                 9                10                11                12
#            Time
            0.005            101325            101325            101325            101325            101325            101325            101325            101325            101325            101325            101325            101325            101325
             0.01            101325            101325            101325            101325            101325            101325            101325            101325            101325            101325            101325            101325            101325
            0.015            101325            101325            101325            101325            101325            101325            101325            101325            101325            101325            101325            101325            101325
             0.02            101325            101325            101325            101325            101325            101325            101325            101325            101325            101325            101325            101325            101325
            0.025            101325            101325            101325            101325            101325            101325            101325            101325            101325            101325            101325            101325            101325
             0.03            101325            101325            101325            101325            101325            101325            101325            101325            101325            101325            101325            101325            101325
            0.035            101325            101325            101325            101325            101325            101325            101325            101325            101325            101325            101325            101325            101325
             0.04            101325            101325            101325            101325            101325            101325            101325            101325            101325            101325            101325            101325            101325
            0.045            101325            101325            101325            101325            101325            101325            101325            101325            101325            101325            101325            101325            101325
             0.05            101325            101325            101325            101325            101325            101325            101325            101325            101325            101325            101325            101325            101325
            0.055            101325            101325            101325            101325            101325            101325            101325            101325            101325            101325            101325            101325            101325
             0.06            101325            101325            101325            101325            101325            101325            101325            101325            101325            101325            101325            101325            101325
            0.065            101325            101325            101325            101325            101325            101325            101325            101325            101325            101325            101325            101325            101325
             0.07            101325            101325            101325            101325            101325            101325            101325            101325            101325            101325            101325            101325            101325
            0.075            101325            101325            101325            101325            101325            101325            101325            101325            101325            101325            101325            101325            101325
             0.08            101325            101325            101325            101325            101325            101325            101325            101325            101325            101325            101325            101325            101325
            0.085            101325            101325            101325            101325            101325            101325            101325            101325            101325            101325            101325            101325            101325
             0.09            101325            101325            101325            101325            101325            101325            101325            101325            101325            101325            101325            101325            101325
            0.095            101325            101325            101325            101325            101325            101325            101325            101325            101325            101325            101325            101325            101325
              0.1            101325            101325            101325            101325            101325            101325            101325            101325            101325            101325            101325            101325            101325
            0.105            101325            101325            101325            101325            101325            101325        101222.369            101325            101325            101325            101325            101325            101325
             0.11            101325            101325            101325            101325            101325            101325       101001.0804            101325            101325            101325            101325            101325            101325
            0.115            101325            101325            101325            101325            101325            101325       100801.7516            101325            101325            101325            101325            101325            101325
             0.12            101325            101325            101325            101325            101325            101325       100701.0018            101325            101325            101325            101325            101325            101325
            0.125            101325            101325            101325            101325            101325            101325       100710.0779            101325            101325            101325            101325            101325            101325
             0.13            101325            101325            101325            101325            101325            101325       100813.1568       101324.9987            101325            101325            101325            101325            101325
            0.135            101325            101325            101325            101325            101325            101325       100983.1332       101324.9066            101325            101325            101325            101325            101325
             0.14            101325            101325            101325            101325            101325       101324.9998       101204.4562       101322.4716            101325            101325            101325            101325            101325
            0.145            101325            101325            101325            101325            101325       101324.9968       101443.0894       101305.7541            101325            101325            101325            101325            101325
             0.15            101325            101325            101325            101325            101325       101324.9436       101699.6878       101262.8297            101325            101325            101325            101325            101325
            0.155            101325            101325            101325            101325            101325       101324.2776       101905.5354       101204.6067            101325            101325            101325            101325            101325
             0.16            101325            101325            101325            101325            101325       101319.7696       102067.2721       101156.2871            101325            101325            101325            101325            101325
            0.165            101325            101325            101325            101325            101325       101303.4504       102123.5513       101137.8933            101325            101325            101325            101325            101325
             0.17            101325            101325            101325            101325            101325       101267.4696       102134.8519       101149.9217            101325            101325            101325            101325            101325
            0.175            101325            101325            101325            101325            101325       101212.2329       102061.0235       101181.3397            101325            101325            101325            101325            101325
             0.18            101325            101325            101325            101325            101325        101148.457       101923.6918       101242.1271            101325            101325            101325            101325            101325
            0.185            101325            101325            101325            101325            101325       101098.5541       101716.2007        101312.921            101325            101325            101325            101325            101325
             0.19            101325            101325            101325            101325            101325        101081.722       101508.7046       101386.7632       101324.8417            101325            101325            101325            101325
            0.195            101325            101325            101325            101325            101325       101089.6851       101278.5451       101452.7452       101315.8462            101325            101325            101325            101325
              0.2            101325            101325            101325            101325            101325       101115.9715       101026.7758        101508.786       101284.3226            101325            101325            101325            101325
            0.205            101325            101325            101325            101325            101325       101185.8202       100796.5096       101552.3025       101240.8497            101325            101325            101325            101325
             0.21            101325            101325            101325            101325            101325       101283.6326       100629.5541       101574.2172       101205.3846            101325            101325            101325            101325
            0.215            101325            101325            101325            101325            101325       101387.8462       100566.7742       101570.5638       101193.4132            101325            101325            101325            101325
             0.22            101325            101325            101325            101325            101325       101487.0836       100553.5102       101546.3744       101196.7866            101325            101325            101325            101325
            0.225            101325            101325            101325            101325            101325       101571.9237       100615.4822       101498.4292       101211.5709            101325            101325            101325            101325
             0.23            101325            101325            101325            101325       101324.9977       101632.1484        100751.305       101435.7284       101253.4579            101325            101325            101325            101325
            0.235            101325            101325            101325            101325        101324.498       101656.6778       100937.2387       101363.9155       101304.7275            101325            101325            101325            101325
             0.24            101325            101325            101325            101325       101316.6163       101652.0655       101146.0427       101287.2457       101356.7688       101324.9952            101325            101325            101325
            0.245            101325            101325            101325            101325       101289.5171       101631.0049       101408.2153       101219.3298       101405.0298       101321.5171            101325            101325            101325
             0.25            101325            101325            101325            101325       101246.1605       101579.9144       101656.7649       101162.2187       101448.3952       101295.2019            101325            101325            101325
            0.255            101325            101325            101325            101325        101201.717       101493.9557       101875.0712       101118.0516       101483.0733         101257.54            101325            101325            101325
             0.26            101325            101325            101325            101325       101171.9972       101393.9396       102044.3839       101093.7963       101499.3167       101229.4303            101325            101325            101325
            0.265            101325            101325            101325            101325       101160.8879          101291.2       102101.8766       101092.4571       101497.7999        101219.055            101325            101325            101325
             0.27            101325            101325            101325            101325       101161.3387       101192.8381       102109.2138       101114.0391       101487.9192        101219.565            101325            101325            101325
            0.275            101325            101325            101325            101325       101168.7987       101107.8891       102046.1642        101162.646       101458.1135       101226.4977            101325            101325            101325
             0.28            101325            101325            101325            101325       101206.2638       101044.6478       101910.7603       101222.3723       101413.8966       101258.4992            101325            101325            101325
            0.285            101325            101325            101325            101325       101277.9172       101014.4317       101720.4558       101296.3946       101362.7921       101301.3556            101325            101325            101325
             0.29            101325            101325            101325            101325       101357.7699       101014.7687       101512.5153       101373.3178       101309.3848       101343.8984       101324.9999            101325            101325
            0.295            101325            101325            101325            101325        101433.773       101032.5858       101263.5146       101443.6299       101259.9524       101384.5409        101323.837            101325            101325
              0.3            101325            101325            101325            101325       101496.2137       101076.8837       101011.7207        101500.283       101216.7583       101422.6504       101302.9463            101325            101325
            0.305            101325            101325            101325            101325       101535.6009       101159.3355       100790.4218       101543.7356       101181.5268       101451.8955       101268.6354            101325            101325
             0.31            101325            101325            101325       101324.9642       101551.1636       101261.2404        100623.629       101563.5327       101162.1045       101464.8506       101244.3766            101325            101325
            0.315            101325            101325            101325       101321.9152       101551.7953       101369.2813       100562.1145       101560.4292       101161.4191       101465.3407       101234.5927            101325            101325
             0.32            101325            101325            101325       101300.7287       101545.2906       101471.9913       100549.6183       101538.0136       101170.1756        101460.624       101233.7543            101325            101325
            0.325            101325            101325            101325       101263.2358       101519.3508       101558.2354       100612.1269       101496.7851       101198.2176       101440.1993       101236.9452            101325            101325
             0.33            101325            101325            101325       101228.1463       101460.2921       101619.7839       100748.8727       101433.3617       101241.7148       101403.6169       101260.5744            101325            101325
            0.335            101325            101325            101325        101205.352       101388.0786       101646.1265       100936.6844       101358.5819       101292.6502       101361.9447       101298.5841            101325            101325
             0.34            101325            101325            101325       101195.5409       101313.6583       101642.7015       101145.9913       101284.0197        101347.128       101318.8069        101335.876            101325            101325
            0.345            101325            101325            101325       101194.1353       101240.9578       101622.4053       101398.4776       101215.4627        101398.079       101277.8356       101372.4874       101324.5854            101325
             0.35            101325            101325            101325       101196.6543       101178.0372       101572.2438       101655.3678       101156.5297       101442.2328       101240.2255       101407.1051       101308.7765            101325
            0.355            101325            101325            101325       101215.2237       101134.7481       101488.1374       101876.1211       101115.0786       101475.9725       101209.7619       101432.6335       101277.1928            101325
             0.36            101325            101325            101325       101271.6034       101114.7786       101389.8896       102039.6331       101089.3287       101492.6705         101194.28       101444.2321       101254.9366            101325
            0.365            101325            101325            101325       101342.8079       101111.5701        101287.273       102097.0118        101091.775       101491.8966       101192.3665       101445.8131       101245.3608            101325
             0.37            101325            101325            101325       101408.5321       101116.3625        101188.684        102107.219       101115.3318       101482.6843       101196.2927       101443.3966       101243.7453            101325
            0.375            101325            101325            101325       101459.2246       101134.1445       101104.1631       102042.9151       101161.9712       101455.6363        101214.181       101429.9691       101245.2608            101325
             0.38            101325            101325            101325       101490.5435       101188.1272       101041.3643       101904.7725       101222.3023       101412.2034       101250.1103       101398.1251       101261.4764            101325
            0.385            101325            101325       101324.9916       101504.2629       101263.9336       101011.2027       101715.9352       101292.1098       101360.7851       101291.9742       101361.8782       101295.7609            101325
             0.39            101325            101325       101323.4337       101506.7764       101344.5359       101011.5868       101510.3487       101368.6287       101307.2634       101336.2519       101324.9052        101330.098            101325
            0.395            101325            101325       101307.5429       101504.1898       101422.1048       101029.5426       101262.2006        101438.067       101257.0051       101378.9401       101288.5654       101364.1643       101324.8434
              0.4            101325            101325       101275.5052        101491.844       101486.2344       101074.6719       101006.0071       101501.1659       101213.4575       101417.4011       101254.2797       101396.0605       101312.9912
            0.405            101325            101325       101245.3297       101448.8832       101527.1145       101157.9856       100786.6308       101540.8541       101178.6803       101446.4751       101227.3969       101419.1408       101284.0117
             0.41            101325            101325       101225.5525       101387.9258       101543.6822       101259.5071       100624.6828       101559.8951       101159.1003       101459.7091       101213.7104       101430.1035       101262.9574
            0.415            101325            101325       101216.2204       101323.8612        101544.801       101367.0035       100563.7424       101561.9685       101158.7016       101460.5256       101210.9285       101432.4167       101253.4187
             0.42            101325            101325       101213.9397       101262.6452       101538.6627       101470.1702       100549.4139       101537.6514       101168.4994       101456.2581       101212.8554       101431.0949       101251.2513
            0.425            101325            101325       101214.9612       101211.6281       101514.0943       101556.7731       100610.1548       101488.5336        101197.826        101438.105       101223.5059       101422.9465       101252.0301
             0.43            101325            101325       101223.5018       101176.9632         101456.39       101617.9378       100747.2523       101431.1484       101239.8359       101402.3742       101254.3345       101395.1507       101262.2733
            0.435            101325            101325        101266.335       101159.5352       101384.8625       101643.9515       100935.7299       101360.5281        101290.633       101360.5404       101291.0573       101362.4117       101293.0382
             0.44            101325            101325       101331.0963       101154.5766       101310.7061       101640.5146       101145.1982       101281.1673       101345.9772       101316.9754       101329.3382       101329.3927        101325.667
            0.445            101325            101325       101390.7982       101155.8733       101238.1732        101620.312       101397.7528       101213.7154       101397.1885       101275.4842       101367.4828       101296.0052       101357.9471
             0.45            101325            101325       101435.3658       101162.5431       101175.4089       101570.1083       101655.0537       101156.0063       101440.7443       101237.6926       101402.5107       101264.2833       101387.6819
            0.455            101325            101325       101462.9846       101197.3476       101132.2446       101486.0437       101875.7243       101109.5492       101474.9837       101207.2365       101428.0696       101239.8803       101409.0444
             0.46            101325       101324.9967       101476.0913       101261.5744       101112.3723       101388.1376       102038.5458       101088.2744       101493.5627       101191.9574       101439.8686       101227.0979       101419.6381
            0.465            101325       101324.0645       101479.7138       101332.8492       101109.2605       101285.4522       102095.2586       101091.6431       101492.8703       101190.3982       101441.6945       101223.6702       101422.4747
             0.47            101325       101311.9479       101478.8018       101399.0138       101114.1562       101186.4662       102105.6239       101115.4737       101480.2626       101194.7515       101439.5137       101224.5761       101421.8121
            0.475            101325       101284.5984       101473.4462       101450.9537       101132.4145       101102.3783       102042.3164       101160.5592       101450.6904       101213.8467       101428.0071       101230.3508       101417.1762
             0.48            101325       101257.8002       101443.5638       101483.4896       101186.8893       101040.8747       101904.8073       101220.1829        101410.681       101248.8198       101397.1553        101256.323        101393.525
            0.485            101325       101239.6834       101389.7421        101498.013       101262.6663       101011.4796        101715.496       101289.7036        101361.297       101290.5474         101360.74       101289.7811       101363.2013
             0.49            101325       101230.4981       101331.3356       101500.9325       101343.2133        101011.874       101508.9783       101368.6029       101307.2468       101335.4013       101323.3457       101324.3167       101332.7765
            0.495            101325       101227.6107       101277.1828       101498.5745       101420.8355       101029.5837       101260.9823       101442.7151       101257.2124        101377.982       101286.6144       101359.5384       101301.5432
              0.5            101325       101227.8902       101233.0993       101487.2789       101484.9265       101073.8174       101006.3415       101498.1051       101213.4381       101416.2162       101252.0922        101391.898       101271.8975
            0.505            101325       101231.8057        101202.813       101445.8066        101525.667       101156.8185       100787.0312       101541.6643       101178.4656       101446.3438       101225.2062       101415.0969       101249.2794
             0.51            101325       101262.7427       101186.4316       101385.4074       101542.1245       101258.7201        100623.548       101563.9104       101159.1718       101460.3158       101211.7956       101426.2422       101237.0435
            0.515            101325       101320.8665       101180.4389       101321.4913       101543.2157       101366.6247       100561.9191       101557.6554       101158.0391       101460.7619       101209.3224       101428.7739       101233.1454
             0.52            101325       101376.5454       101180.1062       101260.3276       101537.0903        101469.996        100548.512       101532.0637       101169.2998       101455.2826       101211.4266       101427.6133       101233.3583
            0.525            101325       101417.7905       101182.6729       101209.3794       101512.5541       101556.5295       100609.9318       101491.6513       101198.7598       101434.1936       101223.0508       101420.9098        101236.339
             0.53            101325        101443.591       101202.8077       101174.8476       101454.9626       101617.4214       100746.9572       101431.1257       101238.2265       101400.9657       101253.4723       101394.3756       101257.1842
            0.535       101324.9002       101456.5889       101257.5329       101157.5693       101383.3868       101643.2323       100934.9621       101359.5184       101289.4191       101360.6357       101290.0003       101361.4555       101288.3606
             0.54       101320.4683       101461.0483       101323.5562       101152.7294       101309.0764       101639.7759       101144.5596       101284.1493       101344.7507       101317.1712       101328.5046        101328.051       101320.5351
            0.545       101301.0454       101461.1613       101382.9977       101154.1073       101236.6763       101619.6608       101397.4327       101213.7387       101396.0675       101275.4603       101366.4819       101294.2945       101353.6043
             0.55       101275.4724       101458.8333       101428.1852       101160.9797       101174.4478       101569.7777        101654.184       101156.0017        101440.165       101237.6435       101401.7467       101262.3218       101383.8143
            0.555       101255.3771        101439.747       101456.7165       101196.2335       101131.8812       101485.7812       101874.7319       101111.2986       101474.9205       101207.0696       101428.1445       101237.9452       101405.3549
             0.56       101243.4241       101392.7619       101470.5483       101260.5432       101112.3282       101387.6192       102038.2318       101088.5701       101493.0654       101191.5421       101440.1935       101225.4312        101416.133
            0.565       101238.2254       101338.2118       101474.6045       101331.8051       101109.2817        101284.908        102095.577       101092.2997       101493.0796       101190.2308       101441.7296       101222.2661       101419.1716
             0.57       101237.1619       101288.4905       101473.9186        101397.993       101114.1426       101186.2618       102105.6435       101116.2606       101479.7236       101195.1048       101439.1315       101223.2996       101418.6609
            0.575       101237.9314       101248.6262        101469.193       101449.8883       101132.0262       101102.3237       102041.9667       101157.5283       101451.6936       101214.8011       101424.9222       101229.6764       101414.9677
             0.58       101248.5025       101220.8923       101440.9189       101482.3097       101186.0784       101040.5158       101904.4276       101218.4704       101410.6413       101248.0427        101395.474       101255.7647       101392.8796