# Probe 0 (-126 0 0)
# Probe 1 (-105 0 0)
# Probe 2 (-84 0 0)
# Probe 3 (-63 0 0)
# Probe 4 (-42 0 0)
# Probe 5 (-21 0 0)
# Probe 6 (0 0 0)
# Probe 7 (21 0 0)
# Probe 8 (42 0 0)
# Probe 9 (63 0 0)
# Probe 10 (84 0 0)
# Probe 11 (105 0 0)
# Probe 12 (126 0 0)
#           Probe                 0                 1                 2                 3                 4                 5                 6                 7                 8                 9                10                11                12
#            Time
           0.0025            101325            101325            101325            101325            101325            101325            101325            101325            101325            101325            101325            101325            101325
            0.005            101325            101325            101325            101325            101325            101325            101325            101325            101325            101325            101325            101325            101325
           0.0075            101325            101325            101325            101325            101325            101325            101325            101325            101325            101325            101325            101325            101325
             0.01            101325            101325            101325            101325            101325            101325            101325            101325            101325            101325            101325            101325            101325
           0.0125            101325            101325            101325            101325            101325            101325            101325            101325            101325            101325            101325            101325            101325
            0.015            101325            101325            101325            101325            101325            101325            101325            101325            101325            101325            101325            101325            101325
           0.0175            101325            101325            101325            101325            101325            101325            101325            101325            101325            101325            101325            101325            101325
             0.02            101325            101325            101325            101325            101325            101325            101325            101325            101325            101325            101325            101325            101325
           0.0225            101325            101325            101325            101325            101325            101325            101325            101325            101325            101325            101325            101325            101325
            0.025            101325            101325            101325            101325            101325            101325            101325            101325            101325            101325            101325            101325            101325
           0.0275            101325            101325            101325            101325            101325            101325            101325            101325            101325            101325            101325            101325            101325
             0.03            101325            101325            101325            101325            101325            101325            101325            101325            101325            101325            101325            101325            101325
           0.0325            101325            101325            101325            101325            101325            101325            101325            101325            101325            101325            101325            101325            101325
            0.035            101325            101325            101325            101325            101325            101325            101325            101325            101325            101325            101325            101325            101325
           0.0375            101325            101325            101325            101325            101325            101325            101325            101325            101325            101325            101325            101325            101325
             0.04            101325            101325            101325            101325            101325            101325            101325            101325            101325            101325            101325            101325            101325
           0.0425            101325            101325            101325            101325            101325            101325            101325            101325            101325            101325            101325            101325            101325
            0.045            101325            101325            101325            101325            101325            101325            101325            101325            101325            101325            101325            101325            101325
           0.0475            101325            101325            101325            101325            101325            101325            101325            101325            101325            101325            101325            101325            101325
             0.05            101325            101325            101325            101325            101325            101325            101325            101325            101325            101325            101325            101325            101325
           0.0525            101325            101325            101325            101325            101325            101325            101325            101325            101325            101325            101325            101325            101325
            0.055            101325            101325            101325            101325            101325            101325            101325            101325            101325            101325            101325            101325            101325
           0.0575            101325            101325            101325            101325            101325            101325            101325            101325            101325            101325            101325            101325            101325
             0.06            101325            101325            101325            101325            101325            101325            101325            101325            101325            101325            101325            101325            101325
           0.0625            101325            101325            101325            101325            101325            101325            101325            101325            101325            101325            101325            101325            101325
            0.065            101325            101325            101325            101325            101325            101325            101325            101325            101325            101325            101325            101325            101325
           0.0675            101325            101325            101325            101325            101325            101325            101325            101325            101325            101325            101325            101325            101325
             0.07            101325            101325            101325            101325            101325            101325            101325            101325            101325            101325            101325            101325            101325
           0.0725            101325            101325            101325            101325            101325            101325            101325            101325            101325            101325            101325            101325            101325
            0.075            101325            101325            101325            101325            101325            101325            101325            101325            101325            101325            101325            101325            101325
           0.0775            101325            101325            101325            101325            101325            101325            101325            101325            101325            101325            101325            101325            101325
             0.08            101325            101325            101325            101325            101325            101325            101325            101325            101325            101325            101325            101325            101325
           0.0825            101325            101325            101325            101325            101325            101325            101325            101325            101325            101325            101325            101325            101325
            0.085            101325            101325            101325            101325            101325            101325            101325            101325            101325            101325            101325            101325            101325
           0.0875            101325            101325            101325            101325            101325            101325            101325            101325            101325            101325            101325            101325            101325
             0.09            101325            101325            101325            101325            101325            101325            101325            101325            101325            101325            101325            101325            101325
           0.0925            101325            101325            101325            101325            101325            101325            101325            101325            101325            101325            101325            101325            101325
            0.095            101325            101325            101325            101325            101325            101325            101325            101325            101325            101325            101325            101325            101325
           0.0975            101325            101325            101325            101325            101325            101325            101325            101325            101325            101325            101325            101325            101325
              0.1            101325            101325            101325            101325            101325            101325            101325            101325            101325            101325            101325            101325            101325
           0.1025            101325            101325            101325            101325            101325            101325       101297.8372            101325            101325            101325            101325            101325            101325
            0.105            101325            101325            101325            101325            101325            101325       101223.3012            101325            101325            101325            101325            101325            101325
           0.1075            101325            101325            101325            101325            101325            101325       101118.1399            101325            101325            101325            101325            101325            101325
             0.11            101325            101325            101325            101325            101325            101325       101002.2338            101325            101325            101325            101325            101325            101325
           0.1125            101325            101325            101325            101325            101325            101325        100892.916            101325            101325            101325            101325            101325            101325
            0.115            101325            101325            101325            101325            101325            101325       100802.5343            101325            101325            101325            101325            101325            101325
           0.1175            101325            101325            101325            101325            101325            101325       100737.9181            101325            101325            101325            101325            101325            101325
             0.12            101325            101325            101325            101325            101325            101325       100701.2276            101325            101325            101325            101325            101325            101325
           0.1225            101325            101325            101325            101325            101325            101325       100692.2619            101325            101325            101325            101325            101325            101325
            0.125            101325            101325            101325            101325            101325            101325       100709.7758            101325            101325            101325            101325            101325            101325
           0.1275            101325            101325            101325            101325            101325            101325       100751.1104       101324.9998            101325            101325            101325            101325            101325
             0.13            101325            101325            101325            101325            101325            101325       100812.4572       101324.9987            101325            101325            101325            101325            101325
           0.1325            101325            101325            101325            101325            101325            101325       100889.7944       101324.9884            101325            101325            101325            101325            101325
            0.135            101325            101325            101325            101325            101325            101325       100982.1357       101324.9082            101325            101325            101325            101325            101325
           0.1375            101325            101325            101325            101325            101325            101325       101088.2019       101324.4333            101325            101325            101325            101325            101325
             0.14            101325            101325            101325            101325            101325       101324.9998       101203.2776       101322.5024            101325            101325            101325            101325            101325
           0.1425            101325            101325            101325            101325            101325       101324.9993          101323.1       101317.0821            101325            101325            101325            101325            101325
            0.145            101325            101325            101325            101325            101325       101324.9969       101441.8843       101305.8993            101325            101325            101325            101325            101325
           0.1475            101325            101325            101325            101325            101325       101324.9865       101569.0049       101287.7121            101325            101325            101325            101325            101325
             0.15            101325            101325            101325            101325            101325       101324.9443        101698.368        101263.104            101325            101325            101325            101325            101325
           0.1525            101325            101325            101325            101325            101325       101324.7878       101817.1302       101234.3913            101325            101325            101325            101325            101325
            0.155            101325            101325            101325            101325            101325       101324.2852       101904.6933       101204.8973            101325            101325            101325            101325            101325
           0.1575            101325            101325            101325            101325            101325        101322.922       101993.9596       101177.9852            101325            101325            101325            101325            101325
             0.16            101325            101325            101325            101325            101325       101319.8116       102066.7813       101156.4686            101325            101325            101325            101325            101325
           0.1625            101325            101325            101325            101325            101325       101313.7695       102100.3495       101142.6511            101325            101325            101325            101325            101325
            0.165            101325            101325            101325            101325            101325       101303.5753       102123.3158       101137.8965            101325            101325            101325            101325            101325
           0.1675            101325            101325            101325            101325            101325       101288.3218       102142.2222        101140.956            101325            101325            101325            101325            101325
             0.17            101325            101325            101325            101325            101325       101267.7026       102135.0712       101149.8245            101325            101325            101325            101325            101325
           0.1725            101325            101325            101325            101325            101325       101242.1086       102102.7806       101161.5517            101325            101325            101325            101325            101325
            0.175            101325            101325            101325            101325            101325       101212.5463        102061.496       101181.0974            101325            101325            101325            101325            101325
           0.1775            101325            101325            101325            101325            101325       101180.6216       102006.0663       101209.0285            101325            101325            101325            101325            101325
             0.18            101325            101325            101325            101325            101325       101148.7681        101924.625        101241.785            101325            101325            101325            101325            101325
           0.1825            101325            101325            101325            101325            101325       101120.3217       101825.2041       101276.5594            101325            101325            101325            101325            101325
            0.185            101325            101325            101325            101325            101325       101098.7292       101717.2694       101312.5544            101325            101325            101325            101325            101325
           0.1875            101325            101325            101325            101325            101325       101086.0049       101611.3449       101349.5082       101324.9977            101325            101325            101325            101325
             0.19            101325            101325            101325            101325            101325       101081.7301       101509.7133       101386.3972       101324.8458            101325            101325            101325            101325
           0.1925            101325            101325            101325            101325            101325        101083.132       101400.9065        101421.237       101322.9821            101325            101325            101325            101325
            0.195            101325            101325            101325            101325            101325       101089.6077       101279.7741       101452.4456        101315.945            101325            101325            101325            101325
           0.1975            101325            101325            101325            101325            101325       101098.2717       101154.8965       101481.5539       101302.6509            101325            101325            101325            101325
              0.2            101325            101325            101325            101325            101325       101115.7395       101028.0239       101508.5288       101284.5263            101325            101325            101325            101325
           0.2025            101325            101325            101325            101325            101325       101144.8587       100909.2373       101532.4875       101263.2856            101325            101325            101325            101325
            0.205            101325            101325            101325            101325            101325       101185.3746       100797.6294       101552.1315       101241.0726            101325            101325            101325            101325
           0.2075            101325            101325            101325            101325            101325       101232.4672       100691.8618       101566.2115         101220.83            101325            101325            101325            101325
             0.21            101325            101325            101325            101325            101325       101283.1148       100629.9674       101574.1695       101205.5075            101325            101325            101325            101325
           0.2125            101325            101325            101325            101325            101325       101335.1583       100594.8732       101575.7039       101196.5857            101325            101325            101325            101325
            0.215            101325            101325            101325            101325            101325       101387.3231       100567.0235       101570.6509       101193.4208            101325            101325            101325            101325
           0.2175            101325            101325            101325            101325            101325       101438.4399       100549.8381       101560.2283        101193.951            101325            101325            101325            101325
             0.22            101325            101325            101325            101325            101325       101486.6161       100553.3227       101546.5465       101196.7545            101325            101325            101325            101325
           0.2225            101325            101325            101325            101325            101325        101531.317       100578.4626       101525.5579       101201.0088            101325            101325            101325            101325
            0.225            101325            101325            101325            101325            101325       101571.5475       100615.0726       101498.7178       101211.4236            101325            101325            101325            101325
           0.2275            101325            101325            101325            101325            101325       101605.6788       100669.4406       101468.6078        101229.938            101325            101325            101325            101325
             0.23            101325            101325            101325            101325       101324.9978       101631.9308       100750.3911       101436.0658       101253.2097            101325            101325            101325            101325
           0.2325            101325            101325            101325            101325       101324.9502        101648.927       100842.8904       101401.2684       101278.4366            101325            101325            101325            101325
            0.235            101325            101325            101325            101325       101324.5064       101656.6442       100936.3209       101364.2964       101304.4635            101325            101325            101325            101325
           0.2375            101325            101325            101325            101325       101322.4278       101656.7542       101031.9489       101325.7878       101330.6627            101325            101325            101325            101325
             0.24            101325            101325            101325            101325       101316.6941       101652.1392       101144.8322       101287.6214       101356.5127       101324.9954            101325            101325            101325
           0.2425            101325            101325            101325            101325       101305.8232       101642.8915       101272.3109       101251.5607       101381.3261       101324.7026            101325            101325            101325
            0.245            101325            101325            101325            101325       101289.7026       101631.1636        101406.876        101219.633       101404.8001       101321.5737            101325            101325            101325
           0.2475            101325            101325            101325            101325       101269.3228        101610.862       101536.4975       101190.1332       101427.1875       101311.5465            101325            101325            101325
             0.25            101325            101325            101325            101325       101246.4002       101580.2766       101655.6373       101162.4832       101448.1923       101295.3858            101325            101325            101325
           0.2525            101325            101325            101325            101325        101223.153       101540.3994       101764.4492       101138.1026       101467.1871       101276.4877            101325            101325            101325
            0.255            101325            101325            101325            101325       101201.9159       101494.4384       101874.0057       101118.2272       101482.9362       101257.7245            101325            101325            101325
           0.2575            101325            101325            101325            101325       101184.5714       101445.2898       101976.8825       101103.4199       101493.8806       101241.4992            101325            101325            101325
             0.26            101325            101325            101325            101325       101172.0978       101394.4539       102043.9536       101093.8635       101499.2898       101229.5265            101325            101325            101325
           0.2625            101325            101325            101325            101325       101164.4715       101343.0306       102076.0027       101090.0653       101500.0294       101222.2882            101325            101325            101325
            0.265            101325            101325            101325            101325       101160.9067        101291.713       102101.6399       101092.3953       101497.8356       101219.0701            101325            101325            101325
           0.2675            101325            101325            101325            101325       101160.2545       101241.1127        102116.977       101101.5442       101493.9668       101218.5479            101325            101325            101325
             0.27            101325            101325            101325            101325       101161.3189       101193.3026       102109.3973       101113.8698       101488.0039       101219.5481            101325            101325            101325
           0.2725            101325            101325            101325            101325       101163.9073       101148.7666       102085.6113        101135.572       101476.0809        101221.363            101325            101325            101325
            0.275            101325            101325            101325            101325       101168.7176       101108.2715       102046.6347       101162.3716       101458.3127       101226.4136            101325            101325            101325
           0.2775            101325            101325            101325            101325       101181.7127        101073.105       101988.8578       101190.5336       101437.2386        101239.265            101325            101325            101325
             0.28            101325            101325            101325            101325       101205.9643         101044.89       101911.6275       101222.0328       101414.1378       101258.2895            101325            101325            101325
           0.2825            101325            101325            101325            101325       101239.3126       101025.1515        101819.545       101257.8242       101389.2939       101279.5309            101325            101325            101325
            0.285            101325            101325            101325            101325       101277.5181       101014.4946       101721.4509       101296.0077        101363.061       101301.1377            101325            101325            101325
           0.2875            101325            101325            101325            101325       101317.3635       101011.9314       101623.3518       101334.4333       101336.2133       101322.5782            101325            101325            101325
             0.29            101325            101325            101325            101325        101357.368       101014.7175       101513.6807       101372.9354       101309.6483       101343.6884       101324.9999            101325            101325