# Probe 0 (-99 0 0)
# Probe 1 (-90 0 0)
# Probe 2 (-81 0 0)
# Probe 3 (-72 0 0)
# Probe 4 (-63 0 0)
# Probe 5 (-54 0 0)
# Probe 6 (-45 0 0)
# Probe 7 (-36 0 0)
# Probe 8 (-27 0 0)
# Probe 9 (-18 0 0)
# Probe 10 (-9 0 0)
# Probe 11 (0 0 0)
# Probe 12 (9 0 0)
# Probe 13 (18 0 0)
# Probe 14 (27 0 0)
# Probe 15 (36 0 0)
# Probe 16 (45 0 0)
# Probe 17 (54 0 0)
# Probe 18 (63 0 0)
# Probe 19 (72 0 0)
# Probe 20 (81 0 0)
# Probe 21 (90 0 0)
# Probe 22 (99 0 0)
#           Probe                 0                 1                 2                 3                 4                 5                 6                 7                 8                 9                10                11                12                13                14                15                16                17                18                19                20                21                22
#            Time
                0            101325            101325            101325            101325            101325            101325            101325            101325            101325            101325            101325            101325            101325            101325            101325            101325            101325            101325            101325            101325            101325            101325            101325
             0.01            101325            101325            101325            101325            101325            101325            101325            101325            101325            101325            101325            101325            101325            101325            101325            101325            101325            101325            101325            101325            101325            101325            101325
             0.02            101325            101325            101325            101325            101325            101325            101325            101325            101325            101325            101325            101325            101325            101325            101325            101325            101325            101325            101325            101325            101325            101325            101325
             0.03            101325            101325            101325            101325            101325            101325            101325            101325            101325            101325            101325            101325            101325            101325            101325            101325            101325            101325            101325            101325            101325            101325            101325
             0.04            101325            101325            101325            101325            101325            101325            101325            101325            101325            101325            101325            101325            101325            101325            101325            101325            101325            101325            101325            101325            101325            101325            101325
             0.05            101325            101325            101325            101325            101325            101325            101325            101325            101325            101325            101325            101325            101325            101325            101325            101325            101325            101325            101325            101325            101325            101325            101325
             0.06            101325            101325            101325            101325            101325            101325            101325            101325            101325            101325            101325            101325            101325            101325            101325            101325            101325            101325            101325            101325            101325            101325            101325
             0.07            101325            101325            101325            101325            101325            101325            101325            101325            101325            101325            101325            101325            101325            101325            101325            101325            101325            101325            101325            101325            101325            101325            101325
             0.08            101325            101325            101325            101325            101325            101325            101325            101325            101325            101325            101325            101325            101325            101325            101325            101325            101325            101325            101325            101325            101325            101325            101325
             0.09            101325            101325            101325            101325            101325            101325            101325            101325            101325            101325            101325            101325            101325            101325            101325            101325            101325            101325            101325            101325            101325            101325            101325
              0.1            101325            101325            101325            101325            101325            101325            101325            101325            101325            101325            101325            101325            101325            101325            101325            101325            101325            101325            101325            101325            101325            101325            101325
             0.11            101325            101325            101325            101325            101325            101325            101325            101325            101325            101325       101323.9065       101000.8451        101318.151            101325            101325            101325            101325            101325            101325            101325            101325            101325            101325
             0.12            101325            101325            101325            101325            101325            101325            101325            101325            101325            101325       101315.6118       100652.5908       101210.9966       101324.9291            101325            101325            101325            101325            101325            101325            101325            101325            101325
             0.13            101325            101325            101325            101325            101325            101325            101325            101325            101325       101324.9999       101280.4962       100680.5572       101115.4243       101310.6961       101324.9999            101325            101325            101325            101325            101325            101325            101325            101325
             0.14            101325            101325            101325            101325            101325            101325            101325            101325            101325       101324.9976       101186.1704       101065.5674       101189.1569       101207.8109       101324.7302            101325            101325            101325            101325            101325            101325            101325            101325
             0.15            101325            101325            101325            101325            101325            101325            101325            101325            101325       101324.9567       101029.3014       101617.3788       101352.3578       101165.1591       101299.0796       101324.9997            101325            101325            101325            101325            101325            101325            101325
             0.16            101325            101325            101325            101325            101325            101325            101325            101325            101325       101324.4753       100886.2529       102092.1723       101525.5563       101228.9589        101207.354       101324.1027            101325            101325            101325            101325            101325            101325            101325
             0.17            101325            101325            101325            101325            101325            101325            101325            101325            101325       101320.8313       100880.5881       102293.9741       101634.8167       101347.7707       101195.6712       101283.9205       101324.9987            101325            101325            101325            101325            101325            101325
             0.18            101325            101325            101325            101325            101325            101325            101325            101325            101325        101303.203        101082.393       102141.0376       101635.9734       101468.4626       101259.9666       101210.7029       101322.1807            101325            101325            101325            101325            101325            101325
             0.19            101325            101325            101325            101325            101325            101325            101325            101325       101324.9994       101249.4903       101438.0837       101694.4592       101528.1901       101541.8859       101361.0678        101218.488       101266.5634       101324.9891            101325            101325            101325            101325            101325
              0.2            101325            101325            101325            101325            101325            101325            101325            101325       101324.9855       101148.4709       101788.5147       101118.6133       101348.3179       101539.3391       101455.7986       101284.6164       101216.6381       101313.1247            101325            101325            101325            101325            101325
             0.21            101325            101325            101325            101325            101325            101325            101325            101325       101324.7912       101038.4433       101972.0434       100627.3864       101163.9693       101460.2862       101505.4107       101374.6677       101239.4151       101245.6599       101324.9903            101325            101325            101325            101325
             0.22            101325            101325            101325            101325            101325            101325            101325            101325        101323.058       101005.3486       101913.8922       100404.3784       101045.6271       101332.9121       101491.1178       101450.9383       101306.8387       101227.0088       101304.7064            101325            101325            101325            101325
             0.23            101325            101325            101325            101325            101325            101325            101325            101325        101313.321       101109.8567       101646.9818        100540.817       101035.6858       101202.4657       101417.1012       101483.4703       101387.6627       101264.4705        101242.103       101324.7014            101325            101325            101325
             0.24            101325            101325            101325            101325            101325            101325            101325       101324.9999       101279.2939       101351.0283       101276.2093       100983.8778       101142.7038       101125.8415       101310.1244       101458.8421       101448.8864       101334.4826        101236.132       101284.5771            101325            101325            101325
             0.25            101325            101325            101325            101325            101325            101325            101325       101324.9958       101206.3816       101616.7554        100932.027       101565.0112       101320.3084       101126.5345       101210.5836       101385.6283       101465.6678       101405.6805       101279.0215       101240.0767       101322.7411            101325            101325
             0.26            101325            101325            101325            101325            101325            101325            101325       101324.9232       101113.5431       101776.4417        100732.463       102055.4001       101502.2542       101206.2129       101156.8119        101291.493       101432.0069       101449.6157       101346.1887       101248.7062        101270.661            101325            101325
             0.27            101325            101325            101325            101325            101325            101325            101325       101324.1245        101064.048       101763.0517       100753.3517       102266.8968        101617.229       101332.8035       101169.4001       101212.0623       101359.4891       101448.8571       101409.2061       101300.8081        101244.856       101317.0678            101325
             0.28            101325            101325            101325            101325            101325            101325            101325       101318.7546       101112.8454       101596.6589       101001.2459        102120.191       101625.1994       101454.8967       101243.4175       101176.5797       101275.3159       101402.5038       101443.1173       101365.6461       101261.6241       101262.6931       101324.9859
             0.29            101325            101325            101325            101325            101325            101325            101325        101296.819       101291.2222       101347.7986       101388.9557       101678.0797       101517.2894       101531.9762       101352.4504       101200.0322       101211.7186       101328.7528       101434.9749       101418.3648       101316.5032       101250.3423       101304.2506
              0.3            101325            101325            101325            101325            101325            101325       101324.9993       101242.7849       101519.9006       101098.9221       101756.5434       101105.4314       101339.6351        101531.523       101449.9368       101272.6607       101192.8758       101255.0097       101385.3296       101435.7902       101377.0636       101273.8693       101258.7113
             0.31            101325            101325            101325            101325            101325            101325       101324.9783       101162.8629       101680.6391       100929.0265       101949.2867       100616.6445        101156.485        101453.705       101498.5878       101366.8144       101225.6104       101209.1312       101315.1879       101416.5047       101421.2027       101329.5783        101255.696
             0.32            101325            101325            101325            101325            101325            101325       101324.6378       101103.3311       101696.5317       100903.7497       101896.8155        100395.369       101039.6732       101327.9317       101487.4872       101446.4727       101297.5264       101208.4347       101250.0525       101361.2475       101427.3986        101385.554       101288.5989
             0.33            101325            101325            101325            101325            101325            101325       101321.6318       101111.9479        101585.619       101042.3151       101633.6168       100533.3214       101030.3957       101199.2532       101413.4062       101479.9951       101380.9953       101254.0402       101214.4271       101294.0877       101400.8492       101420.0567       101344.0959
             0.34            101325            101325            101325            101325            101325            101325       101306.7933       101246.6759       101395.1937       101310.2064         101265.33       100977.8494       101139.5257         101121.52       101304.0542       101455.1843       101443.6922       101327.2476       101221.2483       101239.6766       101344.0276       101420.1092       101395.0559
             0.35            101325            101325            101325            101325            101325            101325       101265.3011       101447.4973       101189.3215       101590.8145       100922.9238       101559.7691       101316.3362       101124.4943       101207.5614        101381.441       101461.9722       101400.1974       101270.2824       101220.5559       101281.5071        101386.779       101416.9216
             0.36            101325            101325            101325            101325            101325       101324.9931       101194.2562       101612.7115       101030.0121       101758.4599       100724.8898       102050.6194       101499.6608       101205.3898       101159.3286       101287.9809       101428.8646       101445.2749       101340.0941       101238.8452       101235.8785       101329.7984       101412.4281
             0.37            101325            101325            101325            101325            101325       101324.7512        101134.864       101648.2004       100977.1072       101749.3739       100746.7291       102262.9584       101614.4303       101334.8974       101163.0477       101210.6757       101354.0035       101445.6641       101404.5699          101293.8       101228.2962       101272.2063       101370.7565
             0.38            101325            101325            101325            101325            101325       101321.8264       101130.9968       101582.6052       101049.4099        101585.908       100995.6294       102116.6436       101622.0834       101461.7945       101245.2017       101173.5615       101274.4886       101400.4428       101439.5833       101360.5719       101253.8475       101236.0877       101314.2878
             0.39            101325            101325            101325            101325            101325       101306.3994       101216.9629       101430.5143       101252.3965       101339.1078       101384.2015       101675.3415       101515.3566       101528.9733       101337.9927       101195.8109       101204.1989       101326.7425        101431.904        101414.367       101310.4915       101235.1321       101261.9473
              0.4            101325            101325            101325            101325            101325       101264.0081        101398.683       101253.0937       101495.7996       101091.6285       101752.7015       101103.1105        101338.871       101532.4683       101470.8574       101270.7087        101189.834       101253.7549       101383.0763       101433.3254       101372.7207       101267.4352        101238.475
             0.41            101325            101325            101325            101325            101325       101194.1759        101562.731       101100.0902       101664.1257       100922.8288       101946.0266       100614.4947       101155.1596       101439.6869       101489.8822       101362.0015       101225.6781       101206.7069       101313.5667       101413.6379       101417.7841       101324.3289        101242.181
             0.42            101325            101325            101325            101325       101324.9952       101152.9277       101608.6154       101026.9989       101683.9455         100898.43       101893.9413       100393.9161       101038.4188       101330.6781       101538.7966       101446.0212       101295.1642        101204.626       101248.9701       101359.2899       101425.0435       101381.6355       101283.1032
             0.43            101325            101325            101325            101325       101324.4518       101152.6374       101583.3491       101048.3835       101576.4362       101037.6876       101631.2086       100531.5944       101029.1309       101225.0657       101425.8433       101474.5805       101382.6065       101252.0131       101213.4027       101292.5068       101398.4335       101417.3357       101339.5552
             0.44            101325            101325            101325            101325       101317.4327       101234.3163       101450.0066       101207.2156       101387.7686        101306.234       101263.2755       100976.4155       101134.8147       101131.9989       101242.1182       101461.5054       101445.1285       101327.9468       101221.7951       101238.5248       101342.3328       101417.8189        101391.593
             0.45            101325            101325            101325            101325       101287.6459       101420.0385       101295.1584       101423.8016       101183.1363       101587.3983       100921.2564       101558.9634       101318.9274       101141.2562        101169.135       101382.0202       101463.0446       101398.9643        101269.652       101217.8795       101280.1103       101384.7048       101414.5657
             0.46            101325            101325            101325            101325       101227.3221       101550.1762        101147.932       101597.1649        101024.602       101755.8643       100723.2537       102050.3052       101502.6787       101178.3818       101141.9993       101281.4784       101427.5856       101445.6465       101338.6638       101238.4284       101235.1396       101328.2633       101410.2167
             0.47            101325            101325            101325       101324.9994       101179.8526       101577.6195       101068.2425       101636.7412       100972.5636        101747.281         100745.32       102262.6571       101617.5557       101375.8878       101192.4702       101213.7306        101355.425       101446.3279       101403.2919       101292.4264       101225.9326       101271.0644       101368.9837
             0.48            101325            101325            101325       101324.8166       101170.5155       101554.6261       101066.7206       101574.4542       101045.1708       101584.1476        100994.399        102115.988       101623.5873       101511.1761       101234.2719       101177.9782       101274.8047       101399.4076       101438.6437       101360.5659       101253.3308       101234.6495       101312.8614
             0.49            101325            101325            101325       101319.0882       101191.8731       101425.8438       101178.3117       101423.7832        101248.793        101337.398       101383.4046       101674.7612       101512.1488       101558.6611       101392.6478       101201.0813       101200.5732       101332.6929       101434.1894       101414.4476       101309.4787       101233.3422       101261.1637
              0.5            101325            101325            101325       101286.2698       101342.9573       101280.3094       101374.3754       101247.4419       101492.8244       101090.1801       101751.9504       101102.7864       101335.9246        101538.751       101497.7569       101270.0835       101188.7337       101261.6295       101383.3168       101434.7974       101371.7442       101266.8587       101236.8321
             0.51            101325            101325            101325       101230.0624       101493.4207       101149.2899       101547.5536       101095.1772       101661.6423       100921.6689       101945.1211       100614.2566       101150.3023       101432.7881        101489.631       101363.3002       101224.9997       101207.4413       101310.6959       101411.7869       101416.5795       101323.4469       101240.9983
             0.52            101325            101325            101325       101193.3391       101544.6169       101094.2054        101597.929       101023.1179       101681.7647       100897.1629       101894.0089        100393.331       101031.5321       101282.2043       101466.4245       101450.6692       101297.6386       101206.7704       101248.9044       101360.5775       101428.1206       101380.8343       101282.4864
             0.53            101325            101325       101324.9611       101187.5781       101544.3252       101095.3959        101575.528       101044.5557       101574.7355       101036.8769       101630.6842       100532.3421       101022.6201       101188.6774       101381.7001       101475.8559       101378.6489       101254.0179        101211.666       101290.9815       101397.4772       101417.6275       101338.8471
             0.54            101325            101325       101321.9361        101209.428       101482.5239       101199.3794       101443.8125       101203.9051       101386.2958       101305.4311       101262.6592       100975.7354       101137.0678       101124.9062       101296.2817       101452.3815       101441.5789       101322.7309       101217.2415       101243.9043       101342.1301       101419.0208       101390.4198
             0.55            101325            101325        101295.799       101345.1896        101337.414        101398.825       101289.9725       101420.9539       101182.0436       101586.8784       100920.7898       101557.8545       101311.9284       101123.3379       101268.0177       101379.4237       101463.5914       101396.4229       101275.4868       101213.8742       101279.2337       101383.8194       101415.6451
             0.56            101325            101325       101245.8684       101475.8553       101204.2805       101536.9839       101143.3436       101594.9591       101023.3053       101755.3425       100722.6462       102049.4131       101495.7352       101222.7136       101155.0629       101290.7388       101427.8953       101445.1758       101339.5069       101240.5488       101234.2419       101328.5379       101409.6721
             0.57            101325            101325       101211.3878       101520.2331       101131.5433       101567.6974       101063.6902       101634.7082       100971.5873       101746.7425       100744.9763       102261.6571       101608.7504       101292.7671       101215.4109       101206.0874       101355.9464       101442.4768       101400.0029       101295.1407       101221.3247       101272.0184       101368.6076
             0.58            101325       101324.9757       101204.2035       101520.1614       101119.2001       101547.3778       101062.8637       101573.0428       101044.4002       101583.6043       100994.0098       102115.3314       101619.4305       101407.1467       101215.2772       101170.1267       101273.5826       101396.2901       101440.4788       101359.9757       101253.6864       101234.1144       101312.8556
             0.59            101325       101323.0614       101215.9158       101475.3094       101147.0645       101420.5599       101175.1262       101422.5546       101248.0141       101337.0042       101382.8364       101673.4455       101515.7267       101501.7739       101371.4738       101192.3985       101197.4875       101330.4448       101432.2055       101408.4913       101307.2567       101224.3396       101261.7602
              0.6            101325        101304.137       101311.9218       101335.8229       101318.6384       101275.7491       101371.7599       101246.4061       101492.2688       101089.7804       101751.2135        101101.908       101331.3522       101538.7782       101440.0159        101269.492       101190.1075       101261.8818       101372.3834       101444.3736       101392.9736        101269.159       101234.3546
             0.61            101325       101262.4081       101435.0978       101210.8232       101478.6865       101144.9186       101545.2963       101094.0434       101661.3429       100920.9211       101944.6669       100613.5591       101149.5831       101456.1337       101510.6026       101363.2884       101224.1506       101209.0113       101310.8238       101411.2486       101405.6569       101323.7918       101237.4896
             0.62       101324.9998       101229.8924       101490.8436       101151.2818       101534.5175       101090.0662       101595.9674       101022.1458       101681.3058       100896.7537       101892.5448       100393.5644       101035.8069       101332.8807       101445.9509       101441.3922       101295.8377       101209.6939       101250.8733       101358.2349       101428.9565       101379.1504       101284.1974
             0.63        101324.942       101221.0024       101497.9812       101142.3924       101535.3292       101091.7189       101574.1796       101043.6791       101574.3561       101036.4071       101629.9892       100531.4895       101023.9938       101160.7064       101388.3554       101485.0791       101378.3691        101255.473       101212.5093       101289.3889       101396.5548       101415.6212       101339.2621
             0.64       101322.5213       101225.9982       101478.9065       101167.9454       101477.5685       101196.4265       101442.5792       101203.0714       101385.9159       101305.0779       101262.2163       100975.9094       101134.4298       101116.7141        101324.757       101452.4263       101445.9355       101323.7413        101216.322       101242.5494       101344.8485       101421.5437       101392.8563
             0.65       101304.8891       101285.0777       101371.4241        101319.735       101333.0671        101396.517       101289.0599       101420.4647       101181.4723       101586.1276       100920.3127       101557.2201       101308.4102       101141.2224       101199.5615       101380.0453       101462.1342       101390.0222       101276.3866       101204.3888       101280.0719       101376.4576       101415.5698
             0.66       101270.0509       101391.6958       101245.3266        101462.227       101200.1871       101534.8973       101142.3868       101594.5989       101022.6531       101754.6918       100722.6288       102048.5725       101492.9488       101230.7372       101081.5539       101285.4569        101427.652       101444.9743       101340.0948        101241.936       101236.1829       101333.1214       101409.0207