# Probe 0 (-100 0 0)
# Probe 1 (-99.825 0 0)
# Probe 2 (-99.65 0 0)
# Probe 3 (-99.475 0 0)
# Probe 4 (-99.3 0 0)
# Probe 5 (-99.125 0 0)
# Probe 6 (-98.95 0 0)
# Probe 7 (-98.775 0 0)
# Probe 8 (-98.6 0 0)
# Probe 9 (-98.425 0 0)
# Probe 10 (-98.25 0 0)
# Probe 11 (-98.075 0 0)
# Probe 12 (-97.9 0 0)
# Probe 13 (-97.725 0 0)
# Probe 14 (-97.55 0 0)
# Probe 15 (-97.375 0 0)
# Probe 16 (-97.2 0 0)
# Probe 17 (-97.025 0 0)
# Probe 18 (-96.85 0 0)
# Probe 19 (-96.675 0 0)
# Probe 20 (-96.5 0 0)
# Probe 21 (-96.325 0 0)
# Probe 22 (-96.15 0 0)
# Probe 23 (-95.976 0 0)
# Probe 24 (-95.801 0 0)
# Probe 25 (-95.626 0 0)
# Probe 26 (-95.451 0 0)
# Probe 27 (-95.276 0 0)
# Probe 28 (-95.101 0 0)
# Probe 29 (-94.926 0 0)
# Probe 30 (-94.751 0 0)
# Probe 31 (-94.576 0 0)
# Probe 32 (-94.401 0 0)
# Probe 33 (-94.226 0 0)
# Probe 34 (-94.051 0 0)
# Probe 35 (-93.876 0 0)
# Probe 36 (-93.701 0 0)
# Probe 37 (-93.526 0 0)
# Probe 38 (-93.351 0 0)
# Probe 39 (-93.176 0 0)
# Probe 40 (-93.001 0 0)
# Probe 41 (-92.826 0 0)
# Probe 42 (-92.651 0 0)
# Probe 43 (-92.476 0 0)
# Probe 44 (-92.301 0 0)
# Probe 45 (-92.126 0 0)
# Probe 46 (-91.951 0 0)
# Probe 47 (-91.776 0 0)
# Probe 48 (-91.601 0 0)
# Probe 49 (-91.426 0 0)
# Probe 50 (-91.251 0 0)
# Probe 51 (-91.076 0 0)
# Probe 52 (-90.901 0 0)
# Probe 53 (-90.726 0 0)
# Probe 54 (-90.551 0 0)
# Probe 55 (-90.376 0 0)
# Probe 56 (-90.201 0 0)
# Probe 57 (-90.026 0 0)
# Probe 58 (-89.851 0 0)
# Probe 59 (-89.676 0 0)
# Probe 60 (-89.501 0 0)
# Probe 61 (-89.326 0 0)
# Probe 62 (-89.151 0 0)
# Probe 63 (-88.976 0 0)
# Probe 64 (-88.801 0 0)
# Probe 65 (-88.626 0 0)
# Probe 66 (-88.451 0 0)
# Probe 67 (-88.276 0 0)
# Probe 68 (-88.101 0 0)
# Probe 69 (-87.927 0 0)
# Probe 70 (-87.752 0 0)
# Probe 71 (-87.577 0 0)
# Probe 72 (-87.402 0 0)
# Probe 73 (-87.227 0 0)
# Probe 74 (-87.052 0 0)
# Probe 75 (-86.877 0 0)
# Probe 76 (-86.702 0 0)
# Probe 77 (-86.527 0 0)
# Probe 78 (-86.352 0 0)
# Probe 79 (-86.177 0 0)
# Probe 80 (-86.002 0 0)
# Probe 81 (-85.827 0 0)
# Probe 82 (-85.652 0 0)
# Probe 83 (-85.477 0 0)
# Probe 84 (-85.302 0 0)
# Probe 85 (-85.127 0 0)
# Probe 86 (-84.952 0 0)
# Probe 87 (-84.777 0 0)
# Probe 88 (-84.602 0 0)
# Probe 89 (-84.427 0 0)
# Probe 90 (-84.252 0 0)
# Probe 91 (-84.077 0 0)
# Probe 92 (-83.902 0 0)
# Probe 93 (-83.727 0 0)
# Probe 94 (-83.552 0 0)
# Probe 95 (-83.377 0 0)
# Probe 96 (-83.202 0 0)
# Probe 97 (-83.027 0 0)
# Probe 98 (-82.852 0 0)
# Probe 99 (-82.677 0 0)
# Probe 100 (-82.502 0 0)
# Probe 101 (-82.327 0 0)
# Probe 102 (-82.152 0 0)
# Probe 103 (-81.977 0 0)
# Probe 104 (-81.802 0 0)
# Probe 105 (-81.627 0 0)
# Probe 106 (-81.452 0 0)
# Probe 107 (-81.277 0 0)
# Probe 108 (-81.102 0 0)
# Probe 109 (-80.927 0 0)
# Probe 110 (-80.752 0 0)
# Probe 111 (-80.577 0 0)
# Probe 112 (-80.402 0 0)
# Probe 113 (-80.227 0 0)
# Probe 114 (-80.052 0 0)
# Probe 115 (-79.878 0 0)
# Probe 116 (-79.703 0 0)
# Probe 117 (-79.528 0 0)
# Probe 118 (-79.353 0 0)
# Probe 119 (-79.178 0 0)
# Probe 120 (-79.003 0 0)
# Probe 121 (-78.828 0 0)
# Probe 122 (-78.653 0 0)
# Probe 123 (-78.478 0 0)
# Probe 124 (-78.303 0 0)
# Probe 125 (-78.128 0 0)
# Probe 126 (-77.953 0 0)
# Probe 127 (-77.778 0 0)
# Probe 128 (-77.603 0 0)
# Probe 129 (-77.428 0 0)
# Probe 130 (-77.253 0 0)
# Probe 131 (-77.078 0 0)
# Probe 132 (-76.903 0 0)
# Probe 133 (-76.728 0 0)
# Probe 134 (-76.553 0 0)
# Probe 135 (-76.378 0 0)
# Probe 136 (-76.203 0 0)
# Probe 137 (-76.028 0 0)
# Probe 138 (-75.853 0 0)
# Probe 139 (-75.678 0 0)
# Probe 140 (-75.503 0 0)
# Probe 141 (-75.328 0 0)
# Probe 142 (-75.153 0 0)
# Probe 143 (-74.978 0 0)
# Probe 144 (-74.803 0 0)
# Probe 145 (-74.628 0 0)
# Probe 146 (-74.453 0 0)
# Probe 147 (-74.278 0 0)
# Probe 148 (-74.103 0 0)
# Probe 149 (-73.928 0 0)
# Probe 150 (-73.753 0 0)
# Probe 151 (-73.578 0 0)
# Probe 152 (-73.403 0 0)
# Probe 153 (-73.228 0 0)
# Probe 154 (-73.053 0 0)
# Probe 155 (-72.878 0 0)
# Probe 156 (-72.703 0 0)
# Probe 157 (-72.528 0 0)
# Probe 158 (-72.353 0 0)
# Probe 159 (-72.178 0 0)
# Probe 160 (-72.003 0 0)
# Probe 161 (-71.829 0 0)
# Probe 162 (-71.654 0 0)
# Probe 163 (-71.479 0 0)
# Probe 164 (-71.304 0 0)
# Probe 165 (-71.129 0 0)
# Probe 166 (-70.954 0 0)
# Probe 167 (-70.779 0 0)
# Probe 168 (-70.604 0 0)
# Probe 169 (-70.429 0 0)
# Probe 170 (-70.254 0 0)
# Probe 171 (-70.079 0 0)
# Probe 172 (-69.904 0 0)
# Probe 173 (-69.729 0 0)
# Probe 174 (-69.554 0 0)
# Probe 175 (-69.379 0 0)
# Probe 176 (-69.204 0 0)
# Probe 177 (-69.029 0 0)
# Probe 178 (-68.854 0 0)
# Probe 179 (-68.679 0 0)
# Probe 180 (-68.504 0 0)
# Probe 181 (-68.329 0 0)
# Probe 182 (-68.154 0 0)
# Probe 183 (-67.979 0 0)
# Probe 184 (-67.804 0 0)
# Probe 185 (-67.629 0 0)
# Probe 186 (-67.454 0 0)
# Probe 187 (-67.279 0 0)
# Probe 188 (-67.104 0 0)
# Probe 189 (-66.929 0 0)
# Probe 190 (-66.754 0 0)
# Probe 191 (-66.579 0 0)
# Probe 192 (-66.404 0 0)
# Probe 193 (-66.229 0 0)
# Probe 194 (-66.054 0 0)
# Probe 195 (-65.879 0 0)
# Probe 196 (-65.704 0 0)
# Probe 197 (-65.529 0 0)
# Probe 198 (-65.354 0 0)
# Probe 199 (-65.179 0 0)
# Probe 200 (-65.004 0 0)
# Probe 201 (-64.829 0 0)
# Probe 202 (-64.654 0 0)
# Probe 203 (-64.479 0 0)
# Probe 204 (-64.304 0 0)
# Probe 205 (-64.129 0 0)
# Probe 206 (-63.955 0 0)
# Probe 207 (-63.78 0 0)
# Probe 208 (-63.605 0 0)
# Probe 209 (-63.43 0 0)
# Probe 210 (-63.255 0 0)
# Probe 211 (-63.08 0 0)
# Probe 212 (-62.905 0 0)
# Probe 213 (-62.73 0 0)
# Probe 214 (-62.555 0 0)
# Probe 215 (-62.38 0 0)
# Probe 216 (-62.205 0 0)
# Probe 217 (-62.03 0 0)
# Probe 218 (-61.855 0 0)
# Probe 219 (-61.68 0 0)
# Probe 220 (-61.505 0 0)
# Probe 221 (-61.33 0 0)
# Probe 222 (-61.155 0 0)
# Probe 223 (-60.98 0 0)
# Probe 224 (-60.805 0 0)
# Probe 225 (-60.63 0 0)
# Probe 226 (-60.455 0 0)
# Probe 227 (-60.28 0 0)
# Probe 228 (-60.105 0 0)
# Probe 229 (-59.93 0 0)
# Probe 230 (-59.755 0 0)
# Probe 231 (-59.58 0 0)
# Probe 232 (-59.405 0 0)
# Probe 233 (-59.23 0 0)
# Probe 234 (-59.055 0 0)
# Probe 235 (-58.88 0 0)
# Probe 236 (-58.705 0 0)
# Probe 237 (-58.53 0 0)
# Probe 238 (-58.355 0 0)
# Probe 239 (-58.18 0 0)
# Probe 240 (-58.005 0 0)
# Probe 241 (-57.83 0 0)
# Probe 242 (-57.655 0 0)
# Probe 243 (-57.48 0 0)
# Probe 244 (-57.305 0 0)
# Probe 245 (-57.13 0 0)
# Probe 246 (-56.955 0 0)
# Probe 247 (-56.78 0 0)
# Probe 248 (-56.605 0 0)
# Probe 249 (-56.43 0 0)
# Probe 250 (-56.255 0 0)
# Probe 251 (-56.08 0 0)
# Probe 252 (-55.906 0 0)
# Probe 253 (-55.731 0 0)
# Probe 254 (-55.556 0 0)
# Probe 255 (-55.381 0 0)
# Probe 256 (-55.206 0 0)
# Probe 257 (-55.031 0 0)
# Probe 258 (-54.856 0 0)
# Probe 259 (-54.681 0 0)
# Probe 260 (-54.506 0 0)
# Probe 261 (-54.331 0 0)
# Probe 262 (-54.156 0 0)
# Probe 263 (-53.981 0 0)
# Probe 264 (-53.806 0 0)
# Probe 265 (-53.631 0 0)
# Probe 266 (-53.456 0 0)
# Probe 267 (-53.281 0 0)
# Probe 268 (-53.106 0 0)
# Probe 269 (-52.931 0 0)
# Probe 270 (-52.756 0 0)
# Probe 271 (-52.581 0 0)
# Probe 272 (-52.406 0 0)
# Probe 273 (-52.231 0 0)
# Probe 274 (-52.056 0 0)
# Probe 275 (-51.881 0 0)
# Probe 276 (-51.706 0 0)
# Probe 277 (-51.531 0 0)
# Probe 278 (-51.356 0 0)
# Probe 279 (-51.181 0 0)
# Probe 280 (-51.006 0 0)
# Probe 281 (-50.831 0 0)
# Probe 282 (-50.656 0 0)
# Probe 283 (-50.481 0 0)
# Probe 284 (-50.306 0 0)
# Probe 285 (-50.131 0 0)
# Probe 286 (-49.956 0 0)
# Probe 287 (-49.781 0 0)
# Probe 288 (-49.606 0 0)
# Probe 289 (-49.431 0 0)
# Probe 290 (-49.256 0 0)
# Probe 291 (-49.081 0 0)
# Probe 292 (-48.906 0 0)
# Probe 293 (-48.731 0 0)
# Probe 294 (-48.556 0 0)
# Probe 295 (-48.381 0 0)
# Probe 296 (-48.206 0 0)
# Probe 297 (-48.031 0 0)
# Probe 298 (-47.857 0 0)
# Probe 299 (-47.682 0 0)
# Probe 300 (-47.507 0 0)
# Probe 301 (-47.332 0 0)
# Probe 302 (-47.157 0 0)
# Probe 303 (-46.982 0 0)
# Probe 304 (-46.807 0 0)
# Probe 305 (-46.632 0 0)
# Probe 306 (-46.457 0 0)
# Probe 307 (-46.282 0 0)
# Probe 308 (-46.107 0 0)
# Probe 309 (-45.932 0 0)
# Probe 310 (-45.757 0 0)
# Probe 311 (-45.582 0 0)
# Probe 312 (-45.407 0 0)
# Probe 313 (-45.232 0 0)
# Probe 314 (-45.057 0 0)
# Probe 315 (-44.882 0 0)
# Probe 316 (-44.707 0 0)
# Probe 317 (-44.532 0 0)
# Probe 318 (-44.357 0 0)
# Probe 319 (-44.182 0 0)
# Probe 320 (-44.007 0 0)
# Probe 321 (-43.832 0 0)
# Probe 322 (-43.657 0 0)
# Probe 323 (-43.482 0 0)
# Probe 324 (-43.307 0 0)
# Probe 325 (-43.132 0 0)
# Probe 326 (-42.957 0 0)
# Probe 327 (-42.782 0 0)
# Probe 328 (-42.607 0 0)
# Probe 329 (-42.432 0 0)
# Probe 330 (-42.257 0 0)
# Probe 331 (-42.082 0 0)
# Probe 332 (-41.907 0 0)
# Probe 333 (-41.732 0 0)
# Probe 334 (-41.557 0 0)
# Probe 335 (-41.382 0 0)
# Probe 336 (-41.207 0 0)
# Probe 337 (-41.032 0 0)
# Probe 338 (-40.857 0 0)
# Probe 339 (-40.682 0 0)
# Probe 340 (-40.507 0 0)
# Probe 341 (-40.332 0 0)
# Probe 342 (-40.157 0 0)
# Probe 343 (-39.983 0 0)
# Probe 344 (-39.808 0 0)
# Probe 345 (-39.633 0 0)
# Probe 346 (-39.458 0 0)
# Probe 347 (-39.283 0 0)
# Probe 348 (-39.108 0 0)
# Probe 349 (-38.933 0 0)
# Probe 350 (-38.758 0 0)
# Probe 351 (-38.583 0 0)
# Probe 352 (-38.408 0 0)
# Probe 353 (-38.233 0 0)
# Probe 354 (-38.058 0 0)
# Probe 355 (-37.883 0 0)
# Probe 356 (-37.708 0 0)
# Probe 357 (-37.533 0 0)
# Probe 358 (-37.358 0 0)
# Probe 359 (-37.183 0 0)
# Probe 360 (-37.008 0 0)
# Probe 361 (-36.833 0 0)
# Probe 362 (-36.658 0 0)
# Probe 363 (-36.483 0 0)
# Probe 364 (-36.308 0 0)
# Probe 365 (-36.133 0 0)
# Probe 366 (-35.958 0 0)
# Probe 367 (-35.783 0 0)
# Probe 368 (-35.608 0 0)
# Probe 369 (-35.433 0 0)
# Probe 370 (-35.258 0 0)
# Probe 371 (-35.083 0 0)
# Probe 372 (-34.908 0 0)
# Probe 373 (-34.733 0 0)
# Probe 374 (-34.558 0 0)
# Probe 375 (-34.383 0 0)
# Probe 376 (-34.208 0 0)
# Probe 377 (-34.033 0 0)
# Probe 378 (-33.858 0 0)
# Probe 379 (-33.683 0 0)
# Probe 380 (-33.508 0 0)
# Probe 381 (-33.333 0 0)
# Probe 382 (-33.158 0 0)
# Probe 383 (-32.983 0 0)
# Probe 384 (-32.808 0 0)
# Probe 385 (-32.633 0 0)
# Probe 386 (-32.458 0 0)
# Probe 387 (-32.283 0 0)
# Probe 388 (-32.108 0 0)
# Probe 389 (-31.934 0 0)
# Probe 390 (-31.759 0 0)
# Probe 391 (-31.584 0 0)
# Probe 392 (-31.409 0 0)
# Probe 393 (-31.234 0 0)
# Probe 394 (-31.059 0 0)
# Probe 395 (-30.884 0 0)
# Probe 396 (-30.709 0 0)
# Probe 397 (-30.534 0 0)
# Probe 398 (-30.359 0 0)
# Probe 399 (-30.184 0 0)
# Probe 400 (-30.009 0 0)
# Probe 401 (-29.834 0 0)
# Probe 402 (-29.659 0 0)
# Probe 403 (-29.484 0 0)
# Probe 404 (-29.309 0 0)
# Probe 405 (-29.134 0 0)
# Probe 406 (-28.959 0 0)
# Probe 407 (-28.784 0 0)
# Probe 408 (-28.609 0 0)
# Probe 409 (-28.434 0 0)
# Probe 410 (-28.259 0 0)
# Probe 411 (-28.084 0 0)
# Probe 412 (-27.909 0 0)
# Probe 413 (-27.734 0 0)
# Probe 414 (-27.559 0 0)
# Probe 415 (-27.384 0 0)
# Probe 416 (-27.209 0 0)
# Probe 417 (-27.034 0 0)
# Probe 418 (-26.859 0 0)
# Probe 419 (-26.684 0 0)
# Probe 420 (-26.509 0 0)
# Probe 421 (-26.334 0 0)
# Probe 422 (-26.159 0 0)
# Probe 423 (-25.984 0 0)
# Probe 424 (-25.809 0 0)
# Probe 425 (-25.634 0 0)
# Probe 426 (-25.459 0 0)
# Probe 427 (-25.284 0 0)
# Probe 428 (-25.109 0 0)
# Probe 429 (-24.934 0 0)
# Probe 430 (-24.759 0 0)
# Probe 431 (-24.584 0 0)
# Probe 432 (-24.409 0 0)
# Probe 433 (-24.234 0 0)
# Probe 434 (-24.059 0 0)
# Probe 435 (-23.885 0 0)
# Probe 436 (-23.71 0 0)
# Probe 437 (-23.535 0 0)
# Probe 438 (-23.36 0 0)
# Probe 439 (-23.185 0 0)
# Probe 440 (-23.01 0 0)
# Probe 441 (-22.835 0 0)
# Probe 442 (-22.66 0 0)
# Probe 443 (-22.485 0 0)
# Probe 444 (-22.31 0 0)
# Probe 445 (-22.135 0 0)
# Probe 446 (-21.96 0 0)
# Probe 447 (-21.785 0 0)
# Probe 448 (-21.61 0 0)
# Probe 449 (-21.435 0 0)
# Probe 450 (-21.26 0 0)
# Probe 451 (-21.085 0 0)
# Probe 452 (-20.91 0 0)
# Probe 453 (-20.735 0 0)
# Probe 454 (-20.56 0 0)
# Probe 455 (-20.385 0 0)
# Probe 456 (-20.21 0 0)
# Probe 457 (-20.035 0 0)
# Probe 458 (-19.86 0 0)
# Probe 459 (-19.685 0 0)
# Probe 460 (-19.51 0 0)
# Probe 461 (-19.335 0 0)
# Probe 462 (-19.16 0 0)
# Probe 463 (-18.985 0 0)
# Probe 464 (-18.81 0 0)
# Probe 465 (-18.635 0 0)
# Probe 466 (-18.46 0 0)
# Probe 467 (-18.285 0 0)
# Probe 468 (-18.11 0 0)
# Probe 469 (-17.935 0 0)
# Probe 470 (-17.76 0 0)
# Probe 471 (-17.585 0 0)
# Probe 472 (-17.41 0 0)
# Probe 473 (-17.235 0 0)
# Probe 474 (-17.06 0 0)
# Probe 475 (-16.885 0 0)
# Probe 476 (-16.71 0 0)
# Probe 477 (-16.535 0 0)
# Probe 478 (-16.36 0 0)
# Probe 479 (-16.185 0 0)
# Probe 480 (-16.01 0 0)
# Probe 481 (-15.836 0 0)
# Probe 482 (-15.661 0 0)
# Probe 483 (-15.486 0 0)
# Probe 484 (-15.311 0 0)
# Probe 485 (-15.136 0 0)
# Probe 486 (-14.961 0 0)
# Probe 487 (-14.786 0 0)
# Probe 488 (-14.611 0 0)
# Probe 489 (-14.436 0 0)
# Probe 490 (-14.261 0 0)
# Probe 491 (-14.086 0 0)
# Probe 492 (-13.911 0 0)
# Probe 493 (-13.736 0 0)
# Probe 494 (-13.561 0 0)
# Probe 495 (-13.386 0 0)
# Probe 496 (-13.211 0 0)
# Probe 497 (-13.036 0 0)
# Probe 498 (-12.861 0 0)
# Probe 499 (-12.686 0 0)
# Probe 500 (-12.511 0 0)
# Probe 501 (-12.336 0 0)
# Probe 502 (-12.161 0 0)
# Probe 503 (-11.986 0 0)
# Probe 504 (-11.811 0 0)
# Probe 505 (-11.636 0 0)
# Probe 506 (-11.461 0 0)
# Probe 507 (-11.286 0 0)
# Probe 508 (-11.111 0 0)
# Probe 509 (-10.936 0 0)
# Probe 510 (-10.761 0 0)
# Probe 511 (-10.586 0 0)
# Probe 512 (-10.411 0 0)
# Probe 513 (-10.236 0 0)
# Probe 514 (-10.061 0 0)
# Probe 515 (-9.886 0 0)
# Probe 516 (-9.711 0 0)
# Probe 517 (-9.536 0 0)
# Probe 518 (-9.361 0 0)
# Probe 519 (-9.186 0 0)
# Probe 520 (-9.011 0 0)
# Probe 521 (-8.836 0 0)
# Probe 522 (-8.661 0 0)
# Probe 523 (-8.486 0 0)
# Probe 524 (-8.311 0 0)
# Probe 525 (-8.136 0 0)
# Probe 526 (-7.962 0 0)
# Probe 527 (-7.787 0 0)
# Probe 528 (-7.612 0 0)
# Probe 529 (-7.437 0 0)
# Probe 530 (-7.262 0 0)
# Probe 531 (-7.087 0 0)
# Probe 532 (-6.912 0 0)
# Probe 533 (-6.737 0 0)
# Probe 534 (-6.562 0 0)
# Probe 535 (-6.387 0 0)
# Probe 536 (-6.212 0 0)
# Probe 537 (-6.037 0 0)
# Probe 538 (-5.862 0 0)
# Probe 539 (-5.687 0 0)
# Probe 540 (-5.512 0 0)
# Probe 541 (-5.337 0 0)
# Probe 542 (-5.162 0 0)
# Probe 543 (-4.987 0 0)
# Probe 544 (-4.812 0 0)
# Probe 545 (-4.637 0 0)
# Probe 546 (-4.462 0 0)
# Probe 547 (-4.287 0 0)
# Probe 548 (-4.112 0 0)
# Probe 549 (-3.937 0 0)
# Probe 550 (-3.762 0 0)
# Probe 551 (-3.587 0 0)
# Probe 552 (-3.412 0 0)
# Probe 553 (-3.237 0 0)
# Probe 554 (-3.062 0 0)
# Probe 555 (-2.887 0 0)
# Probe 556 (-2.712 0 0)
# Probe 557 (-2.537 0 0)
# Probe 558 (-2.362 0 0)
# Probe 559 (-2.187 0 0)
# Probe 560 (-2.012 0 0)
# Probe 561 (-1.837 0 0)
# Probe 562 (-1.662 0 0)
# Probe 563 (-1.487 0 0)
# Probe 564 (-1.312 0 0)
# Probe 565 (-1.137 0 0)
# Probe 566 (-0.962 0 0)
# Probe 567 (-0.787 0 0)
# Probe 568 (-0.612 0 0)
# Probe 569 (-0.437 0 0)
# Probe 570 (-0.262 0 0)
# Probe 571 (-0.087 0 0)
# Probe 572 (0.087 0 0)
# Probe 573 (0.262 0 0)
# Probe 574 (0.437 0 0)
# Probe 575 (0.612 0 0)
# Probe 576 (0.787 0 0)
# Probe 577 (0.962 0 0)
# Probe 578 (1.137 0 0)
# Probe 579 (1.312 0 0)
# Probe 580 (1.487 0 0)
# Probe 581 (1.662 0 0)
# Probe 582 (1.837 0 0)
# Probe 583 (2.012 0 0)
# Probe 584 (2.187 0 0)
# Probe 585 (2.362 0 0)
# Probe 586 (2.537 0 0)
# Probe 587 (2.712 0 0)
# Probe 588 (2.887 0 0)
# Probe 589 (3.062 0 0)
# Probe 590 (3.237 0 0)
# Probe 591 (3.412 0 0)
# Probe 592 (3.587 0 0)
# Probe 593 (3.762 0 0)
# Probe 594 (3.937 0 0)
# Probe 595 (4.112 0 0)
# Probe 596 (4.287 0 0)
# Probe 597 (4.462 0 0)
# Probe 598 (4.637 0 0)
# Probe 599 (4.812 0 0)
# Probe 600 (4.987 0 0)
# Probe 601 (5.162 0 0)
# Probe 602 (5.337 0 0)
# Probe 603 (5.512 0 0)
# Probe 604 (5.687 0 0)
# Probe 605 (5.862 0 0)
# Probe 606 (6.037 0 0)
# Probe 607 (6.212 0 0)
# Probe 608 (6.387 0 0)
# Probe 609 (6.562 0 0)
# Probe 610 (6.737 0 0)
# Probe 611 (6.912 0 0)
# Probe 612 (7.087 0 0)
# Probe 613 (7.262 0 0)
# Probe 614 (7.437 0 0)
# Probe 615 (7.612 0 0)
# Probe 616 (7.787 0 0)
# Probe 617 (7.962 0 0)
# Probe 618 (8.136 0 0)
# Probe 619 (8.311 0 0)
# Probe 620 (8.486 0 0)
# Probe 621 (8.661 0 0)
# Probe 622 (8.836 0 0)
# Probe 623 (9.011 0 0)
# Probe 624 (9.186 0 0)
# Probe 625 (9.361 0 0)
# Probe 626 (9.536 0 0)
# Probe 627 (9.711 0 0)
# Probe 628 (9.886 0 0)
# Probe 629 (10.061 0 0)
# Probe 630 (10.236 0 0)
# Probe 631 (10.411 0 0)
# Probe 632 (10.586 0 0)
# Probe 633 (10.761 0 0)
# Probe 634 (10.936 0 0)
# Probe 635 (11.111 0 0)
# Probe 636 (11.286 0 0)
# Probe 637 (11.461 0 0)
# Probe 638 (11.636 0 0)
# Probe 639 (11.811 0 0)
# Probe 640 (11.986 0 0)
# Probe 641 (12.161 0 0)
# Probe 642 (12.336 0 0)
# Probe 643 (12.511 0 0)
# Probe 644 (12.686 0 0)
# Probe 645 (12.861 0 0)
# Probe 646 (13.036 0 0)
# Probe 647 (13.211 0 0)
# Probe 648 (13.386 0 0)
# Probe 649 (13.561 0 0)
# Probe 650 (13.736 0 0)
# Probe 651 (13.911 0 0)
# Probe 652 (14.086 0 0)
# Probe 653 (14.261 0 0)
# Probe 654 (14.436 0 0)
# Probe 655 (14.611 0 0)
# Probe 656 (14.786 0 0)
# Probe 657 (14.961 0 0)
# Probe 658 (15.136 0 0)
# Probe 659 (15.311 0 0)
# Probe 660 (15.486 0 0)
# Probe 661 (15.661 0 0)
# Probe 662 (15.836 0 0)
# Probe 663 (16.01 0 0)
# Probe 664 (16.185 0 0)
# Probe 665 (16.36 0 0)
# Probe 666 (16.535 0 0)
# Probe 667 (16.71 0 0)
# Probe 668 (16.885 0 0)
# Probe 669 (17.06 0 0)
# Probe 670 (17.235 0 0)
# Probe 671 (17.41 0 0)
# Probe 672 (17.585 0 0)
# Probe 673 (17.76 0 0)
# Probe 674 (17.935 0 0)
# Probe 675 (18.11 0 0)
# Probe 676 (18.285 0 0)
# Probe 677 (18.46 0 0)
# Probe 678 (18.635 0 0)
# Probe 679 (18.81 0 0)
# Probe 680 (18.985 0 0)
# Probe 681 (19.16 0 0)
# Probe 682 (19.335 0 0)
# Probe 683 (19.51 0 0)
# Probe 684 (19.685 0 0)
# Probe 685 (19.86 0 0)
# Probe 686 (20.035 0 0)
# Probe 687 (20.21 0 0)
# Probe 688 (20.385 0 0)
# Probe 689 (20.56 0 0)
# Probe 690 (20.735 0 0)
# Probe 691 (20.91 0 0)
# Probe 692 (21.085 0 0)
# Probe 693 (21.26 0 0)
# Probe 694 (21.435 0 0)
# Probe 695 (21.61 0 0)
# Probe 696 (21.785 0 0)
# Probe 697 (21.96 0 0)
# Probe 698 (22.135 0 0)
# Probe 699 (22.31 0 0)
# Probe 700 (22.485 0 0)
# Probe 701 (22.66 0 0)
# Probe 702 (22.835 0 0)
# Probe 703 (23.01 0 0)
# Probe 704 (23.185 0 0)
# Probe 705 (23.36 0 0)
# Probe 706 (23.535 0 0)
# Probe 707 (23.71 0 0)
# Probe 708 (23.885 0 0)
# Probe 709 (24.059 0 0)
# Probe 710 (24.234 0 0)
# Probe 711 (24.409 0 0)
# Probe 712 (24.584 0 0)
# Probe 713 (24.759 0 0)
# Probe 714 (24.934 0 0)
# Probe 715 (25.109 0 0)
# Probe 716 (25.284 0 0)
# Probe 717 (25.459 0 0)
# Probe 718 (25.634 0 0)
# Probe 719 (25.809 0 0)
# Probe 720 (25.984 0 0)
# Probe 721 (26.159 0 0)
# Probe 722 (26.334 0 0)
# Probe 723 (26.509 0 0)
# Probe 724 (26.684 0 0)
# Probe 725 (26.859 0 0)
# Probe 726 (27.034 0 0)
# Probe 727 (27.209 0 0)
# Probe 728 (27.384 0 0)
# Probe 729 (27.559 0 0)
# Probe 730 (27.734 0 0)
# Probe 731 (27.909 0 0)
# Probe 732 (28.084 0 0)
# Probe 733 (28.259 0 0)
# Probe 734 (28.434 0 0)
# Probe 735 (28.609 0 0)
# Probe 736 (28.784 0 0)
# Probe 737 (28.959 0 0)
# Probe 738 (29.134 0 0)
# Probe 739 (29.309 0 0)
# Probe 740 (29.484 0 0)
# Probe 741 (29.659 0 0)
# Probe 742 (29.834 0 0)
# Probe 743 (30.009 0 0)
# Probe 744 (30.184 0 0)
# Probe 745 (30.359 0 0)
# Probe 746 (30.534 0 0)
# Probe 747 (30.709 0 0)
# Probe 748 (30.884 0 0)
# Probe 749 (31.059 0 0)
# Probe 750 (31.234 0 0)
# Probe 751 (31.409 0 0)
# Probe 752 (31.584 0 0)
# Probe 753 (31.759 0 0)
# Probe 754 (31.934 0 0)
# Probe 755 (32.108 0 0)
# Probe 756 (32.283 0 0)
# Probe 757 (32.458 0 0)
# Probe 758 (32.633 0 0)
# Probe 759 (32.808 0 0)
# Probe 760 (32.983 0 0)
# Probe 761 (33.158 0 0)
# Probe 762 (33.333 0 0)
# Probe 763 (33.508 0 0)
# Probe 764 (33.683 0 0)
# Probe 765 (33.858 0 0)
# Probe 766 (34.033 0 0)
# Probe 767 (34.208 0 0)
# Probe 768 (34.383 0 0)
# Probe 769 (34.558 0 0)
# Probe 770 (34.733 0 0)
# Probe 771 (34.908 0 0)
# Probe 772 (35.083 0 0)
# Probe 773 (35.258 0 0)
# Probe 774 (35.433 0 0)
# Probe 775 (35.608 0 0)
# Probe 776 (35.783 0 0)
# Probe 777 (35.958 0 0)
# Probe 778 (36.133 0 0)
# Probe 779 (36.308 0 0)
# Probe 780 (36.483 0 0)
# Probe 781 (36.658 0 0)
# Probe 782 (36.833 0 0)
# Probe 783 (37.008 0 0)
# Probe 784 (37.183 0 0)
# Probe 785 (37.358 0 0)
# Probe 786 (37.533 0 0)
# Probe 787 (37.708 0 0)
# Probe 788 (37.883 0 0)
# Probe 789 (38.058 0 0)
# Probe 790 (38.233 0 0)
# Probe 791 (38.408 0 0)
# Probe 792 (38.583 0 0)
# Probe 793 (38.758 0 0)
# Probe 794 (38.933 0 0)
# Probe 795 (39.108 0 0)
# Probe 796 (39.283 0 0)
# Probe 797 (39.458 0 0)
# Probe 798 (39.633 0 0)
# Probe 799 (39.808 0 0)
# Probe 800 (39.983 0 0)
# Probe 801 (40.157 0 0)
# Probe 802 (40.332 0 0)
# Probe 803 (40.507 0 0)
# Probe 804 (40.682 0 0)
# Probe 805 (40.857 0 0)
# Probe 806 (41.032 0 0)
# Probe 807 (41.207 0 0)
# Probe 808 (41.382 0 0)
# Probe 809 (41.557 0 0)
# Probe 810 (41.732 0 0)
# Probe 811 (41.907 0 0)
# Probe 812 (42.082 0 0)
# Probe 813 (42.257 0 0)
# Probe 814 (42.432 0 0)
# Probe 815 (42.607 0 0)
# Probe 816 (42.782 0 0)
# Probe 817 (42.957 0 0)
# Probe 818 (43.132 0 0)
# Probe 819 (43.307 0 0)
# Probe 820 (43.482 0 0)
# Probe 821 (43.657 0 0)
# Probe 822 (43.832 0 0)
# Probe 823 (44.007 0 0)
# Probe 824 (44.182 0 0)
# Probe 825 (44.357 0 0)
# Probe 826 (44.532 0 0)
# Probe 827 (44.707 0 0)
# Probe 828 (44.882 0 0)
# Probe 829 (45.057 0 0)
# Probe 830 (45.232 0 0)
# Probe 831 (45.407 0 0)
# Probe 832 (45.582 0 0)
# Probe 833 (45.757 0 0)
# Probe 834 (45.932 0 0)
# Probe 835 (46.107 0 0)
# Probe 836 (46.282 0 0)
# Probe 837 (46.457 0 0)
# Probe 838 (46.632 0 0)
# Probe 839 (46.807 0 0)
# Probe 840 (46.982 0 0)
# Probe 841 (47.157 0 0)
# Probe 842 (47.332 0 0)
# Probe 843 (47.507 0 0)
# Probe 844 (47.682 0 0)
# Probe 845 (47.857 0 0)
# Probe 846 (48.031 0 0)
# Probe 847 (48.206 0 0)
# Probe 848 (48.381 0 0)
# Probe 849 (48.556 0 0)
# Probe 850 (48.731 0 0)
# Probe 851 (48.906 0 0)
# Probe 852 (49.081 0 0)
# Probe 853 (49.256 0 0)
# Probe 854 (49.431 0 0)
# Probe 855 (49.606 0 0)
# Probe 856 (49.781 0 0)
# Probe 857 (49.956 0 0)
# Probe 858 (50.131 0 0)
# Probe 859 (50.306 0 0)
# Probe 860 (50.481 0 0)
# Probe 861 (50.656 0 0)
# Probe 862 (50.831 0 0)
# Probe 863 (51.006 0 0)
# Probe 864 (51.181 0 0)
# Probe 865 (51.356 0 0)
# Probe 866 (51.531 0 0)
# Probe 867 (51.706 0 0)
# Probe 868 (51.881 0 0)
# Probe 869 (52.056 0 0)
# Probe 870 (52.231 0 0)
# Probe 871 (52.406 0 0)
# Probe 872 (52.581 0 0)
# Probe 873 (52.756 0 0)
# Probe 874 (52.931 0 0)
# Probe 875 (53.106 0 0)
# Probe 876 (53.281 0 0)
# Probe 877 (53.456 0 0)
# Probe 878 (53.631 0 0)
# Probe 879 (53.806 0 0)
# Probe 880 (53.981 0 0)
# Probe 881 (54.156 0 0)
# Probe 882 (54.331 0 0)
# Probe 883 (54.506 0 0)
# Probe 884 (54.681 0 0)
# Probe 885 (54.856 0 0)
# Probe 886 (55.031 0 0)
# Probe 887 (55.206 0 0)
# Probe 888 (55.381 0 0)
# Probe 889 (55.556 0 0)
# Probe 890 (55.731 0 0)
# Probe 891 (55.906 0 0)
# Probe 892 (56.08 0 0)
# Probe 893 (56.255 0 0)
# Probe 894 (56.43 0 0)
# Probe 895 (56.605 0 0)
# Probe 896 (56.78 0 0)
# Probe 897 (56.955 0 0)
# Probe 898 (57.13 0 0)
# Probe 899 (57.305 0 0)
# Probe 900 (57.48 0 0)
# Probe 901 (57.655 0 0)
# Probe 902 (57.83 0 0)
# Probe 903 (58.005 0 0)
# Probe 904 (58.18 0 0)
# Probe 905 (58.355 0 0)
# Probe 906 (58.53 0 0)
# Probe 907 (58.705 0 0)
# Probe 908 (58.88 0 0)
# Probe 909 (59.055 0 0)
# Probe 910 (59.23 0 0)
# Probe 911 (59.405 0 0)
# Probe 912 (59.58 0 0)
# Probe 913 (59.755 0 0)
# Probe 914 (59.93 0 0)
# Probe 915 (60.105 0 0)
# Probe 916 (60.28 0 0)
# Probe 917 (60.455 0 0)
# Probe 918 (60.63 0 0)
# Probe 919 (60.805 0 0)
# Probe 920 (60.98 0 0)
# Probe 921 (61.155 0 0)
# Probe 922 (61.33 0 0)
# Probe 923 (61.505 0 0)
# Probe 924 (61.68 0 0)
# Probe 925 (61.855 0 0)
# Probe 926 (62.03 0 0)
# Probe 927 (62.205 0 0)
# Probe 928 (62.38 0 0)
# Probe 929 (62.555 0 0)
# Probe 930 (62.73 0 0)
# Probe 931 (62.905 0 0)
# Probe 932 (63.08 0 0)
# Probe 933 (63.255 0 0)
# Probe 934 (63.43 0 0)
# Probe 935 (63.605 0 0)
# Probe 936 (63.78 0 0)
# Probe 937 (63.955 0 0)
# Probe 938 (64.129 0 0)
# Probe 939 (64.304 0 0)
# Probe 940 (64.479 0 0)
# Probe 941 (64.654 0 0)
# Probe 942 (64.829 0 0)
# Probe 943 (65.004 0 0)
# Probe 944 (65.179 0 0)
# Probe 945 (65.354 0 0)
# Probe 946 (65.529 0 0)
# Probe 947 (65.704 0 0)
# Probe 948 (65.879 0 0)
# Probe 949 (66.054 0 0)
# Probe 950 (66.229 0 0)
# Probe 951 (66.404 0 0)
# Probe 952 (66.579 0 0)
# Probe 953 (66.754 0 0)
# Probe 954 (66.929 0 0)
# Probe 955 (67.104 0 0)
# Probe 956 (67.279 0 0)
# Probe 957 (67.454 0 0)
# Probe 958 (67.629 0 0)
# Probe 959 (67.804 0 0)
# Probe 960 (67.979 0 0)
# Probe 961 (68.154 0 0)
# Probe 962 (68.329 0 0)
# Probe 963 (68.504 0 0)
# Probe 964 (68.679 0 0)
# Probe 965 (68.854 0 0)
# Probe 966 (69.029 0 0)
# Probe 967 (69.204 0 0)
# Probe 968 (69.379 0 0)
# Probe 969 (69.554 0 0)
# Probe 970 (69.729 0 0)
# Probe 971 (69.904 0 0)
# Probe 972 (70.079 0 0)
# Probe 973 (70.254 0 0)
# Probe 974 (70.429 0 0)
# Probe 975 (70.604 0 0)
# Probe 976 (70.779 0 0)
# Probe 977 (70.954 0 0)
# Probe 978 (71.129 0 0)
# Probe 979 (71.304 0 0)
# Probe 980 (71.479 0 0)
# Probe 981 (71.654 0 0)
# Probe 982 (71.829 0 0)
# Probe 983 (72.003 0 0)
# Probe 984 (72.178 0 0)
# Probe 985 (72.353 0 0)
# Probe 986 (72.528 0 0)
# Probe 987 (72.703 0 0)
# Probe 988 (72.878 0 0)
# Probe 989 (73.053 0 0)
# Probe 990 (73.228 0 0)
# Probe 991 (73.403 0 0)
# Probe 992 (73.578 0 0)
# Probe 993 (73.753 0 0)
# Probe 994 (73.928 0 0)
# Probe 995 (74.103 0 0)
# Probe 996 (74.278 0 0)
# Probe 997 (74.453 0 0)
# Probe 998 (74.628 0 0)
# Probe 999 (74.803 0 0)
# Probe 1000 (74.978 0 0)
# Probe 1001 (75.153 0 0)
# Probe 1002 (75.328 0 0)
# Probe 1003 (75.503 0 0)
# Probe 1004 (75.678 0 0)
# Probe 1005 (75.853 0 0)
# Probe 1006 (76.028 0 0)
# Probe 1007 (76.203 0 0)
# Probe 1008 (76.378 0 0)
# Probe 1009 (76.553 0 0)
# Probe 1010 (76.728 0 0)
# Probe 1011 (76.903 0 0)
# Probe 1012 (77.078 0 0)
# Probe 1013 (77.253 0 0)
# Probe 1014 (77.428 0 0)
# Probe 1015 (77.603 0 0)
# Probe 1016 (77.778 0 0)
# Probe 1017 (77.953 0 0)
# Probe 1018 (78.128 0 0)
# Probe 1019 (78.303 0 0)
# Probe 1020 (78.478 0 0)
# Probe 1021 (78.653 0 0)
# Probe 1022 (78.828 0 0)
# Probe 1023 (79.003 0 0)
# Probe 1024 (79.178 0 0)
# Probe 1025 (79.353 0 0)
# Probe 1026 (79.528 0 0)
# Probe 1027 (79.703 0 0)
# Probe 1028 (79.878 0 0)
# Probe 1029 (80.052 0 0)
# Probe 1030 (80.227 0 0)
# Probe 1031 (80.402 0 0)
# Probe 1032 (80.577 0 0)
# Probe 1033 (80.752 0 0)
# Probe 1034 (80.927 0 0)
# Probe 1035 (81.102 0 0)
# Probe 1036 (81.277 0 0)
# Probe 1037 (81.452 0 0)
# Probe 1038 (81.627 0 0)
# Probe 1039 (81.802 0 0)
# Probe 1040 (81.977 0 0)
# Probe 1041 (82.152 0 0)
# Probe 1042 (82.327 0 0)
# Probe 1043 (82.502 0 0)
# Probe 1044 (82.677 0 0)
# Probe 1045 (82.852 0 0)
# Probe 1046 (83.027 0 0)
# Probe 1047 (83.202 0 0)
# Probe 1048 (83.377 0 0)
# Probe 1049 (83.552 0 0)
# Probe 1050 (83.727 0 0)
# Probe 1051 (83.902 0 0)
# Probe 1052 (84.077 0 0)
# Probe 1053 (84.252 0 0)
# Probe 1054 (84.427 0 0)
# Probe 1055 (84.602 0 0)
# Probe 1056 (84.777 0 0)
# Probe 1057 (84.952 0 0)
# Probe 1058 (85.127 0 0)
# Probe 1059 (85.302 0 0)
# Probe 1060 (85.477 0 0)
# Probe 1061 (85.652 0 0)
# Probe 1062 (85.827 0 0)
# Probe 1063 (86.002 0 0)
# Probe 1064 (86.177 0 0)
# Probe 1065 (86.352 0 0)
# Probe 1066 (86.527 0 0)
# Probe 1067 (86.702 0 0)
# Probe 1068 (86.877 0 0)
# Probe 1069 (87.052 0 0)
# Probe 1070 (87.227 0 0)
# Probe 1071 (87.402 0 0)
# Probe 1072 (87.577 0 0)
# Probe 1073 (87.752 0 0)
# Probe 1074 (87.927 0 0)
# Probe 1075 (88.101 0 0)
# Probe 1076 (88.276 0 0)
# Probe 1077 (88.451 0 0)
# Probe 1078 (88.626 0 0)
# Probe 1079 (88.801 0 0)
# Probe 1080 (88.976 0 0)
# Probe 1081 (89.151 0 0)
# Probe 1082 (89.326 0 0)
# Probe 1083 (89.501 0 0)
# Probe 1084 (89.676 0 0)
# Probe 1085 (89.851 0 0)
# Probe 1086 (90.026 0 0)
# Probe 1087 (90.201 0 0)
# Probe 1088 (90.376 0 0)
# Probe 1089 (90.551 0 0)
# Probe 1090 (90.726 0 0)
# Probe 1091 (90.901 0 0)
# Probe 1092 (91.076 0 0)
# Probe 1093 (91.251 0 0)
# Probe 1094 (91.426 0 0)
# Probe 1095 (91.601 0 0)
# Probe 1096 (91.776 0 0)
# Probe 1097 (91.951 0 0)
# Probe 1098 (92.126 0 0)
# Probe 1099 (92.301 0 0)
# Probe 1100 (92.476 0 0)
# Probe 1101 (92.651 0 0)
# Probe 1102 (92.826 0 0)
# Probe 1103 (93.001 0 0)
# Probe 1104 (93.176 0 0)
# Probe 1105 (93.351 0 0)
# Probe 1106 (93.526 0 0)
# Probe 1107 (93.701 0 0)
# Probe 1108 (93.876 0 0)
# Probe 1109 (94.051 0 0)
# Probe 1110 (94.226 0 0)
# Probe 1111 (94.401 0 0)
# Probe 1112 (94.576 0 0)
# Probe 1113 (94.751 0 0)
# Probe 1114 (94.926 0 0)
# Probe 1115 (95.101 0 0)
# Probe 1116 (95.276 0 0)
# Probe 1117 (95.451 0 0)
# Probe 1118 (95.626 0 0)
# Probe 1119 (95.801 0 0)
# Probe 1120 (95.976 0 0)
# Probe 1121 (96.15 0 0)
# Probe 1122 (96.325 0 0)
# Probe 1123 (96.5 0 0)
# Probe 1124 (96.675 0 0)
# Probe 1125 (96.85 0 0)
# Probe 1126 (97.025 0 0)
# Probe 1127 (97.2 0 0)
# Probe 1128 (97.375 0 0)
# Probe 1129 (97.55 0 0)
# Probe 1130 (97.725 0 0)
# Probe 1131 (97.9 0 0)
# Probe 1132 (98.075 0 0)
# Probe 1133 (98.25 0 0)
# Probe 1134 (98.425 0 0)
# Probe 1135 (98.6 0 0)
# Probe 1136 (98.775 0 0)
# Probe 1137 (98.95 0 0)
# Probe 1138 (99.125 0 0)
# Probe 1139 (99.3 0 0)
# Probe 1140 (99.475 0 0)
# Probe 1141 (99.65 0 0)
# Probe 1142 (99.825 0 0)
# Probe 1143 (100 0 0)